
                                 *****************
                                 * O   R   C   A *
                                 *****************

           --- An Ab Initio, DFT and Semiempirical electronic structure package ---

                  #######################################################
                  #                        -***-                        #
                  #          Department of theory and spectroscopy      #
                  #               Directorship: Frank Neese             #
                  #        Max Planck Institute fuer Kohlenforschung    #
                  #                Kaiser Wilhelm Platz 1               #
                  #                 D-45470 Muelheim/Ruhr               #
                  #                      Germany                        #
                  #                                                     #
                  #                  All rights reserved                #
                  #                        -***-                        #
                  #######################################################


                         Program Version 4.2.1 -  RELEASE  -


 With contributions from (in alphabetic order):
   Daniel Aravena         : Magnetic Suceptibility
   Michael Atanasov       : Ab Initio Ligand Field Theory (pilot matlab implementation)
   Alexander A. Auer      : GIAO ZORA, VPT2
   Ute Becker             : Parallelization
   Giovanni Bistoni       : ED, misc. LED, open-shell LED, HFLD
   Martin Brehm           : Molecular dynamics
   Dmytro Bykov           : SCF Hessian
   Vijay G. Chilkuri      : MRCI spin determinant printing, contributions to CSF-ICE
   Dipayan Datta          : RHF DLPNO-CCSD density
   Achintya Kumar Dutta   : EOM-CC, STEOM-CC
   Dmitry Ganyushin       : Spin-Orbit,Spin-Spin,Magnetic field MRCI
   Miquel Garcia          : C-PCM Hessian, Gaussian charge scheme
   Yang Guo               : DLPNO-NEVPT2, CIM, IAO-localization
   Andreas Hansen         : Spin unrestricted coupled pair/coupled cluster methods
   Benjamin Helmich-Paris : CASSCF linear response (MC-RPA)
   Lee Huntington         : MR-EOM, pCC
   Robert Izsak           : Overlap fitted RIJCOSX, COSX-SCS-MP3, EOM
   Christian Kollmar      : KDIIS, OOCD, Brueckner-CCSD(T), CCSD density
   Simone Kossmann        : Meta GGA functionals, TD-DFT gradient, OOMP2, MP2 Hessian
   Martin Krupicka        : AUTO-CI
   Lucas Lang             : DCDCAS
   Dagmar Lenk            : GEPOL surface, SMD
   Dimitrios Liakos       : Extrapolation schemes; Compound Job, initial MDCI parallelization
   Dimitrios Manganas     : Further ROCIS development; embedding schemes
   Dimitrios Pantazis     : SARC Basis sets
   Taras Petrenko         : DFT Hessian,TD-DFT gradient, ASA, ECA, R-Raman, ABS, FL, XAS/XES, NRVS
   Peter Pinski           : DLPNO-MP2, DLPNO-MP2 Gradient
   Christoph Reimann      : Effective Core Potentials
   Marius Retegan         : Local ZFS, SOC
   Christoph Riplinger    : Optimizer, TS searches, QM/MM, DLPNO-CCSD(T), (RO)-DLPNO pert. Triples
   Tobias Risthaus        : Range-separated hybrids, TD-DFT gradient, RPA, STAB
   Michael Roemelt        : Original ROCIS implementation
   Masaaki Saitow         : Open-shell DLPNO-CCSD energy and density
   Barbara Sandhoefer     : DKH picture change effects
   Avijit Sen             : IP-ROCIS
   Kantharuban Sivalingam : CASSCF convergence, NEVPT2, FIC-MRCI
   Bernardo de Souza      : ESD, SOC TD-DFT
   Georgi Stoychev        : AutoAux, RI-MP2 NMR
   Willem Van den Heuvel  : Paramagnetic NMR
   Boris Wezisla          : Elementary symmetry handling
   Frank Wennmohs         : Technical directorship


 We gratefully acknowledge several colleagues who have allowed us to
 interface, adapt or use parts of their codes:
   Stefan Grimme, W. Hujo, H. Kruse,             : VdW corrections, initial TS optimization,
                  C. Bannwarth                     DFT functionals, gCP, sTDA/sTD-DF
   Ed Valeev, F. Pavosevic, A. Kumar             : LibInt (2-el integral package), F12 methods
   Garnet Chan, S. Sharma, J. Yang, R. Olivares  : DMRG
   Ulf Ekstrom                                   : XCFun DFT Library
   Mihaly Kallay                                 : mrcc  (arbitrary order and MRCC methods)
   Andreas Klamt, Michael Diedenhofen            : otool_cosmo (COSMO solvation model)
   Jiri Pittner, Ondrej Demel                    : Mk-CCSD
   Frank Weinhold                                : gennbo (NPA and NBO analysis)
   Christopher J. Cramer and Donald G. Truhlar   : smd solvation model
   Lars Goerigk                                  : TD-DFT with DH, B97 family of functionals
   V. Asgeirsson, H. Jonsson                     : NEB implementation
   FAccTs GmbH                                   : IRC, NEB, NEB-TS, Multilevel, MM, QM/MM, CI optimization
   S Lehtola, MJT Oliveira, MAL Marques          : LibXC Library


 Your calculation uses the libint2 library for the computation of 2-el integrals
 For citations please refer to: http://libint.valeyev.net

 Your ORCA version has been built with support for libXC version: 4.2.3
 For citations please refer to: https://tddft.org/programs/libxc/

 This ORCA versions uses:
   CBLAS   interface :  Fast vector & matrix operations
   LAPACKE interface :  Fast linear algebra routines
   SCALAPACK package :  Parallel linear algebra routines


SCAN-COORDS
----- Orbital basis set information -----
Your calculation utilizes the basis: def2-TZVP
   F. Weigend and R. Ahlrichs, Phys. Chem. Chem. Phys. 7, 3297 (2005).

----- AuxJ basis set information -----
Your calculation utilizes the auxiliary basis: def2/J
   F. Weigend, Phys. Chem. Chem. Phys. 8, 1057 (2006).

================================================================================
                                        WARNINGS
                       Please study these warnings very carefully!
================================================================================

WARNING: Gradients needed for Numerical Frequencies
  ===> : Setting RunTyp to EnGrad

WARNING: your system is open-shell and RHF/RKS was chosen
  ===> : WILL SWITCH to UHF/UKS


WARNING: The environment variable RSH_COMMAND is not set!
  ===> : All Displacements for the Numerical Hessian calculation
         will be started on localhost

INFO   : the flag for use of LIBINT has been found!

================================================================================
                                       INPUT FILE
================================================================================
NAME = input.inp
|  1> ! PAL4 VWN
|  2> 
|  3> %method
|  4>         method DFT
|  5>         runtyp Energy
|  6> end
|  7> 
|  8> %basis
|  9>         basis "def2-TZVP"
| 10> end
| 11> ! NumFreq
| 12> %output
| 13>         XYZFile true
| 14> end
| 15> %coords
| 16>         CTyp xyz
| 17>         Charge 0
| 18>         Mult 2
| 19>         Units Angs
| 20>         coords
| 21>         P       0	0	0
| 22>         end
| 23> end
| 24> 
| 25>                          ****END OF INPUT****
================================================================================

                     *******************************
                     * Energy+Gradient Calculation *
                     *******************************

---------------------------------
CARTESIAN COORDINATES (ANGSTROEM)
---------------------------------
  P      0.000000    0.000000    0.000000

----------------------------
CARTESIAN COORDINATES (A.U.)
----------------------------
  NO LB      ZA    FRAG     MASS         X           Y           Z
   0 P    15.0000    0    30.974    0.000000    0.000000    0.000000

--------------------------------
INTERNAL COORDINATES (ANGSTROEM)
--------------------------------
 P      0   0   0     0.000000000000     0.00000000     0.00000000

---------------------------
INTERNAL COORDINATES (A.U.)
---------------------------
 P      0   0   0     0.000000000000     0.00000000     0.00000000

---------------------
BASIS SET INFORMATION
---------------------
There are 1 groups of distinct atoms

 Group   1 Type P   : 14s9p3d1f contracted to 5s5p2d1f pattern {73211/51111/21/1}

Atom   0P    basis set group =>   1
---------------------------------
AUXILIARY/J BASIS SET INFORMATION
---------------------------------
There are 1 groups of distinct atoms

 Group   1 Type P   : 14s5p5d2f1g contracted to 8s4p3d1f1g pattern {71111111/2111/311/2/1}

Atom   0P    basis set group =>   1


           ************************************************************
           *        Program running with 4 parallel MPI-processes     *
           *              working on a common directory               *
           ************************************************************
------------------------------------------------------------------------------
                           ORCA GTO INTEGRAL CALCULATION
                           -- RI-GTO INTEGRALS CHOSEN --
------------------------------------------------------------------------------

                         BASIS SET STATISTICS AND STARTUP INFO

Gaussian basis set:
 # of primitive gaussian shells          ...   27
 # of primitive gaussian functions       ...   63
 # of contracted shells                  ...   13
 # of contracted basis functions         ...   37
 Highest angular momentum                ...    3
 Maximum contraction depth               ...    7
Auxiliary gaussian basis set:
 # of primitive gaussian shells          ...   27
 # of primitive gaussian functions       ...   77
 # of contracted shells                  ...   17
 # of contracted aux-basis functions     ...   51
 Highest angular momentum                ...    4
 Maximum contraction depth               ...    7
Ratio of auxiliary to basis functions    ...  1.38
Integral package used                  ... LIBINT
 One Electron integrals                  ... done
 Ordering auxiliary basis shells         ... done
 Integral threshhold             Thresh  ...  2.500e-11
 Primitive cut-off               TCut    ...  2.500e-12
 Pre-screening matrix                    ... done
 Shell pair data                         ... 
 Ordering of the shell pairs             ... done (   0.000 sec) 91 of 91 pairs
 Determination of significant pairs      ... done (   0.000 sec)
 Creation of shell pair data             ... done (   0.000 sec)
 Storage of shell pair data              ... done (   0.010 sec)
 Shell pair data done in (   0.010 sec)
 Computing two index integrals           ... done
 Cholesky decomposition of the V-matrix  ... done


Timings:
 Total evaluation time                   ...   0.268 sec (  0.004 min)
 One electron matrix time                ...   0.012 sec (  0.000 min) =  4.5%
 Schwartz matrix evaluation time         ...   0.204 sec (  0.003 min) = 76.1%
 Two index repulsion integral time       ...   0.001 sec (  0.000 min) =  0.4%
 Cholesky decomposition of V             ...   0.001 sec (  0.000 min) =  0.3%
 Three index repulsion integral time     ...   0.000 sec (  0.000 min) =  0.0%



           ************************************************************
           *        Program running with 4 parallel MPI-processes     *
           *              working on a common directory               *
           ************************************************************
-------------------------------------------------------------------------------
                                 ORCA SCF
-------------------------------------------------------------------------------

------------
SCF SETTINGS
------------
Hamiltonian:
 Density Functional     Method          .... DFT(GTOs)
 Exchange Functional    Exchange        .... Slater
   X-Alpha parameter    XAlpha          ....  0.666667
 Correlation Functional Correlation     .... VWN-5
 Gradients option       PostSCFGGA      .... off
   Density functional embedding theory  .... OFF
 RI-approximation to the Coulomb term is turned on
   Number of auxiliary basis functions  .... 51


General Settings:
 Integral files         IntName         .... input
 Hartree-Fock type      HFTyp           .... UHF
 Total Charge           Charge          ....    0
 Multiplicity           Mult            ....    2
 Number of Electrons    NEL             ....   15
 Basis Dimension        Dim             ....   37
 Nuclear Repulsion      ENuc            ....      0.0000000000 Eh

Convergence Acceleration:
 DIIS                   CNVDIIS         .... on
   Start iteration      DIISMaxIt       ....    12
   Startup error        DIISStart       ....  0.200000
   # of expansion vecs  DIISMaxEq       ....     5
   Bias factor          DIISBfac        ....   1.050
   Max. coefficient     DIISMaxC        ....  10.000
 Newton-Raphson         CNVNR           .... off
 SOSCF                  CNVSOSCF        .... off
 Level Shifting         CNVShift        .... on
   Level shift para.    LevelShift      ....    0.2500
   Turn off err/grad.   ShiftErr        ....    0.0010
 Zerner damping         CNVZerner       .... off
 Static damping         CNVDamp         .... on
   Fraction old density DampFac         ....    0.7000
   Max. Damping (<1)    DampMax         ....    0.9800
   Min. Damping (>=0)   DampMin         ....    0.0000
   Turn off err/grad.   DampErr         ....    0.1000
 Fernandez-Rico         CNVRico         .... off

SCF Procedure:
 Maximum # iterations   MaxIter         ....   125
 SCF integral mode      SCFMode         .... Direct
   Integral package                     .... LIBINT
 Reset frequency        DirectResetFreq ....    20
 Integral Threshold     Thresh          ....  2.500e-11 Eh
 Primitive CutOff       TCut            ....  2.500e-12 Eh

Convergence Tolerance:
 Convergence Check Mode ConvCheckMode   .... Total+1el-Energy
 Convergence forced     ConvForced      .... 0
 Energy Change          TolE            ....  1.000e-08 Eh
 1-El. energy change                    ....  1.000e-05 Eh
 DIIS Error             TolErr          ....  5.000e-07


Diagonalization of the overlap matrix:
Smallest eigenvalue                        ... 5.460e-02
Time for diagonalization                   ...    0.001 sec
Threshold for overlap eigenvalues          ... 1.000e-08
Number of eigenvalues below threshold      ... 0
Time for construction of square roots      ...    0.001 sec
Total time needed                          ...    0.002 sec

-------------------
DFT GRID GENERATION
-------------------

General Integration Accuracy     IntAcc      ...  4.340
Radial Grid Type                 RadialGrid  ... Gauss-Chebyshev
Angular Grid (max. acc.)         AngularGrid ... Lebedev-110
Angular grid pruning method      GridPruning ... 3 (G Style)
Weight generation scheme         WeightScheme... Becke
Basis function cutoff            BFCut       ...    1.0000e-11
Integration weight cutoff        WCut        ...    1.0000e-14
Grids for H and He will be reduced by one unit

# of grid points (after initial pruning)     ...   1806 (   0.0 sec)
# of grid points (after weights+screening)   ...   1806 (   0.0 sec)
Grid point division into batches done        ...    0.0 sec
Reduced shell lists constructed in    0.0 sec

Total number of grid points                  ...     1806
Total number of batches                      ...       29
Average number of points per batch           ...       62
Average number of grid points per atom       ...     1806
Average number of shells per batch           ...     7.56 (58.12%)
Average number of basis functions per batch  ...    25.78 (69.67%)
Average number of large shells per batch     ...     6.67 (88.24%)
Average number of large basis fcns per batch ...    22.22 (86.21%)
Maximum spatial batch extension              ...  17.83, 32.81, 32.81 au
Average spatial batch extension              ...   4.27,  5.56,  6.73 au

Time for grid setup =    0.009 sec

------------------------------
INITIAL GUESS: MODEL POTENTIAL
------------------------------
Loading Hartree-Fock densities                     ... done
Calculating cut-offs                               ... done
Setting up the integral package                    ... done
Initializing the effective Hamiltonian             ... done
Starting the Coulomb interaction                   ... done (   0.0 sec)
Reading the grid                                   ... done
Mapping shells                                     ... done
Starting the XC term evaluation                    ... done (   0.0 sec)
  promolecular density results
     # of electrons  =     14.999997786
     EX              =    -20.704667324
     EC              =     -1.144883645
     EX+EC           =    -21.849550969
Transforming the Hamiltonian                       ... done (   0.0 sec)
Diagonalizing the Hamiltonian                      ... done (   0.0 sec)
Back transforming the eigenvectors                 ... done (   0.0 sec)
Now organizing SCF variables                       ... done
                      ------------------
                      INITIAL GUESS DONE (   0.2 sec)
                      ------------------
--------------
SCF ITERATIONS
--------------
ITER       Energy         Delta-E        Max-DP      RMS-DP      [F,P]     Damp
               ***  Starting incremental Fock matrix formation  ***
  0   -339.9199834204   0.000000000000 0.00363947  0.00030186  0.0488253 0.7000
  1   -339.9212854429  -0.001302022478 0.00331213  0.00028367  0.0351221 0.7000
                               ***Turning on DIIS***
  2   -339.9221974033  -0.000911960383 0.00830538  0.00072214  0.0235791 0.0000
  3   -339.9241540545  -0.001956651212 0.00145995  0.00007933  0.0036226 0.0000
  4   -339.9241831745  -0.000029119990 0.22282655  0.01451131  0.0006973 0.0000
  5   -339.9113089495   0.012874224980 0.00003254  0.00000294  0.0996349 0.0000
  6   -339.9112731754   0.000035774155 0.00001380  0.00000104  0.0997813 0.0000
  7   -339.9112638223   0.000009353036 0.00007582  0.00000634  0.0998137 0.0000
  8   -339.9111950651   0.000068757257 0.00000942  0.00000066  0.1000884 0.7000
  9   -339.9111898542   0.000005210892 0.00607163  0.00057854  0.1001060 0.7000
 10   -339.9154447883  -0.004254934160 0.01783698  0.00153481  0.0711056 0.0000
 11   -339.9241755803  -0.008730791987 0.00104942  0.00007884  0.0028774 0.0000
 12   -339.9241848428  -0.000009262516 0.00065195  0.00003202  0.0012382 0.0000
 13   -339.9241860298  -0.000001186994 0.21500858  0.01449168  0.0001066 0.0000
 14   -339.9113145987   0.012871431121 0.00000084  0.00000008  0.0961557 0.0000
 15   -339.9113136763   0.000000922433 0.00000083  0.00000007  0.0961591 0.0000
 16   -339.9113130592   0.000000617122 0.00000639  0.00000030  0.0961611 0.0000
 17   -339.9113123647   0.000000694499 0.00000872  0.00000037  0.0961665 0.0000
 18   -339.9113119348   0.000000429848 0.01961546  0.00188338  0.0961691 0.0000
 19   -339.9239793650  -0.012667430161 0.01236866  0.00049164  0.0097988 0.0000
               *** Restarting incremental Fock matrix formation ***
                                   *** Resetting DIIS ***
 20   -339.9241678574  -0.000188492389 0.00113332  0.00010032  0.0038745 0.0000
 21   -339.9241833241  -0.000015466752 0.00084669  0.00003870  0.0019926 0.0000
 22   -339.9241855914  -0.000002267308 0.22305739  0.01451183  0.0001275 0.0000
 23   -339.9113088348   0.012876756596 0.00000883  0.00000076  0.0996316 0.0000
 24   -339.9113003942   0.000008440588 0.00000353  0.00000026  0.0996653 0.0000
 25   -339.9112982845   0.000002109770 0.00001584  0.00000064  0.0996723 0.0000
 26   -339.9113015176  -0.000003233108 0.00000271  0.00000017  0.0996615 0.0000
 27   -339.9113024253  -0.000000907758 0.02016089  0.00192158  0.0996586 0.0000
 28   -339.9239792073  -0.012676781987 0.01239834  0.00049675  0.0085136 0.0000
 29   -339.9241682062  -0.000188998860 0.00116040  0.00008566  0.0038983 0.0000
 30   -339.9241848459  -0.000016639748 0.21536929  0.01449204  0.0006985 0.0000
 31   -339.9113339913   0.012850854634 0.00000981  0.00000097  0.0961487 0.0000
 32   -339.9113456998  -0.000011708544 0.00000442  0.00000035  0.0961059 0.0000
 33   -339.9113487791  -0.000003079245 0.00006072  0.00000252  0.0960965 0.0000
 34   -339.9113702465  -0.000021467448 0.00010643  0.00000420  0.0960142 0.0000
 35   -339.9113622753   0.000007971210 0.01958229  0.00187295  0.0960293 0.0000
 36   -339.9239814583  -0.012619183008 0.01219612  0.00048634  0.0097916 0.0000
 37   -339.9241682958  -0.000186837425 0.00111425  0.00008150  0.0038017 0.0000
 38   -339.9241847471  -0.000016451364 0.22317095  0.01451149  0.0006911 0.0000
 39   -339.9113329545   0.012851792657 0.00001138  0.00000103  0.0996077 0.0000
               *** Restarting incremental Fock matrix formation ***
                                   *** Resetting DIIS ***
 40   -339.9113451040  -0.000012149519 0.02014015  0.00190853  0.0995586 0.0000
 41   -339.9239819550  -0.012636850963 0.01221973  0.00049131  0.0085103 0.0000
 42   -339.9241697792  -0.000187824214 0.00120195  0.00008686  0.0037969 0.0000
 43   -339.9241869697  -0.000017190508 0.21529955  0.01449220  0.0007232 0.0000
 44   -339.9113362534   0.012850716241 0.00001023  0.00000101  0.0961191 0.0000
 45   -339.9113485035  -0.000012250099 0.00000329  0.00000024  0.0960743 0.0000
 46   -339.9113504257  -0.000001922173 0.00006285  0.00000260  0.0960689 0.0000
 47   -339.9113725560  -0.000022130249 0.00011323  0.00000448  0.0959838 0.0000
 48   -339.9113637636   0.000008792358 0.01957664  0.00187349  0.0960009 0.0000
 49   -339.9239856409  -0.012621877321 0.01219719  0.00048723  0.0097887 0.0000
 50   -339.9241757211  -0.000190080198 0.00135333  0.00008933  0.0038043 0.0000
 51   -339.9241976519  -0.000021930795 0.22307957  0.01450936  0.0006903 0.0000
 52   -339.9113504588   0.012847193079 0.00001116  0.00000100  0.0995663 0.0000
 53   -339.9113623447  -0.000011885908 0.00000398  0.00000029  0.0995183 0.0000
 54   -339.9113647517  -0.000002406974 0.00006184  0.00000263  0.0995104 0.0000
 55   -339.9113867161  -0.000021964413 0.00011103  0.00000439  0.0994194 0.0000
 56   -339.9113781976   0.000008518480 0.02022306  0.00190916  0.0994384 0.0000
 57   -339.9240081814  -0.012629983741 0.01218768  0.00049538  0.0084935 0.0000
 58   -339.9242150983  -0.000206916898 0.00213860  0.00012535  0.0038071 0.0000
 59   -339.9242656700  -0.000050571712 0.21501063  0.01447648  0.0007158 0.0000
               *** Restarting incremental Fock matrix formation ***
                                   *** Resetting DIIS ***
 60   -339.9114429786   0.012822691417 0.01957570  0.00187767  0.0959899 0.0000
 61   -339.9241431479  -0.012700169330 0.01217810  0.00051663  0.0097495 0.0000
 62   -339.9244521793  -0.000309031408 0.00345621  0.00023915  0.0037906 0.0000
 63   -339.9246747242  -0.000222544904 0.22155072  0.01441100  0.0007085 0.0000
 64   -339.9119932708   0.012681453371 0.00000312  0.00000028  0.0988742 0.0000
 65   -339.9119965502  -0.000003279353 0.00002287  0.00000162  0.0988609 0.0000
 66   -339.9119805866   0.000015963591 0.00006703  0.00000368  0.0989234 0.0000
 67   -339.9119927973  -0.000012210663 0.00011587  0.00000490  0.0988594 0.0000
 68   -339.9119836593   0.000009137933 0.02403095  0.00193053  0.0988797 0.0000
 69   -339.9249463111  -0.012962651754 0.01186175  0.00063780  0.0082224 0.0000
 70   -339.9258275969  -0.000881285808 0.00775794  0.00053141  0.0037455 0.0000
 71   -339.9269715640  -0.001143967133 0.20697924  0.01391521  0.0008530 0.0000
 72   -339.9150085638   0.011963000207 0.00003207  0.00000318  0.0924368 0.0000
 73   -339.9149713556   0.000037208198 0.00013281  0.00001091  0.0925734 0.0000
 74   -339.9148642107   0.000107144922 0.00011184  0.00000784  0.0929173 0.0000
 75   -339.9148306687   0.000033542055 0.00012640  0.00000740  0.0929659 0.0000
 76   -339.9148230714   0.000007597204 0.02042697  0.00197151  0.0929718 0.0000
 77   -339.9290196221  -0.014196550674 0.01172493  0.00095885  0.0083335 0.0000
 78   -339.9321541316  -0.003134509486 0.01444944  0.00097290  0.0035822 0.0000
 79   -339.9361152713  -0.003961139738 0.01535450  0.00105097  0.0039160 0.0000
               *** Restarting incremental Fock matrix formation ***
                                   *** Resetting DIIS ***
 80   -339.9408411659  -0.004725894556 0.01510994  0.00105748  0.0056291 0.0000
 81   -339.9457514520  -0.004910286140 0.01287529  0.00097060  0.0053478 0.0000
 82   -339.9500215127  -0.004270060663 0.01085668  0.00085946  0.0015460 0.0000
 83   -339.9534244087  -0.003402895986 0.00987374  0.00074262  0.0039704 0.0000
 84   -339.9558867926  -0.002462383860 0.01101718  0.00073764  0.0058226 0.0000
 85   -339.9575838201  -0.001697027593 0.01008617  0.00066409  0.0137991 0.0000
 86   -339.9585321003  -0.000948280154 0.00891500  0.00058427  0.0189367 0.0000
 87   -339.9589014728  -0.000369372496 0.00721982  0.00048522  0.0225878 0.0000
 88   -339.9589368065  -0.000035333719 0.00559233  0.00038838  0.0242367 0.0000
 89   -339.9587886933   0.000148113249 0.00659861  0.00041049  0.0247703 0.0000
 90   -339.9580532069   0.000735486411 0.00390600  0.00026380  0.0302519 0.0000
 91   -339.9578932915   0.000159915393 0.00249115  0.00016161  0.0280092 0.0000
 92   -339.9580130847  -0.000119793222 0.00125079  0.00010259  0.0236862 0.0000
 93   -339.9582864086  -0.000273323926 0.00792919  0.00047746  0.0186406 0.0000
 94   -339.9592463012  -0.000959892564 0.00377630  0.00023094  0.0014937 0.0000
 95   -339.9594739620  -0.000227660846 0.00255777  0.00017180  0.0017547 0.0000
 96   -339.9596032600  -0.000129297951 0.00180397  0.00012940  0.0019373 0.0000
 97   -339.9596762851  -0.000073025120 0.00142882  0.00009862  0.0016843 0.0000
 98   -339.9597169807  -0.000040695584 0.00080334  0.00006018  0.0014736 0.0000
 99   -339.9597245309  -0.000007550265 0.00112118  0.00006943  0.0014326 0.0000
               *** Restarting incremental Fock matrix formation ***
                                   *** Resetting DIIS ***
100   -339.9597441831  -0.000019652122 0.00482129  0.00031982  0.0005372 0.0000
101   -339.9597412375   0.000002945523 0.00029578  0.00001785  0.0020888 0.0000
102   -339.9597335937   0.000007643852 0.00018186  0.00001101  0.0028032 0.0000
103   -339.9597299959   0.000003597786 0.00013845  0.00000896  0.0029226 0.0000
104   -339.9597273248   0.000002671144 0.00011495  0.00000761  0.0029741 0.0000
105   -339.9597250062   0.000002318546 0.00082884  0.00005088  0.0030150 0.0000
106   -339.9597451408  -0.000020134611 0.00501824  0.00031308  0.0008684 0.0000
107   -339.9597413304   0.000003810456 0.00017241  0.00001035  0.0020890 0.0000
108   -339.9597450239  -0.000003693492 0.00018384  0.00001072  0.0016798 0.0000
109   -339.9597480273  -0.000003003413 0.00025706  0.00001512  0.0014210 0.0000
110   -339.9597517358  -0.000003708564 0.00021185  0.00001304  0.0010513 0.0000
111   -339.9597542058  -0.000002470001 0.00293262  0.00018400  0.0008852 0.0000
112   -339.9597581577  -0.000003951817 0.00014983  0.00000909  0.0010122 0.0000
113   -339.9597596350  -0.000001477375 0.00104106  0.00006558  0.0006556 0.0000
114   -339.9597633271  -0.000003692108 0.00004984  0.00000325  0.0000291 0.0000
                 **** Energy Check signals convergence ****

               *****************************************************
               *                     SUCCESS                       *
               *           SCF CONVERGED AFTER 115 CYCLES          *
               *****************************************************

Setting up the final grid:

General Integration Accuracy     IntAcc      ...  4.670
Radial Grid Type                 RadialGrid  ... Gauss-Chebyshev
Angular Grid (max. acc.)         AngularGrid ... Lebedev-302
Angular grid pruning method      GridPruning ... 3 (G Style)
Weight generation scheme         WeightScheme... Becke
Basis function cutoff            BFCut       ...    1.0000e-11
Integration weight cutoff        WCut        ...    1.0000e-14
Grids for H and He will be reduced by one unit

# of grid points (after initial pruning)     ...   6846 (   0.0 sec)
# of grid points (after weights+screening)   ...   6846 (   0.0 sec)
Grid point division into batches done        ...    0.1 sec
Reduced shell lists constructed in    0.1 sec

Total number of grid points                  ...     6846
Total number of batches                      ...      107
Average number of points per batch           ...       63
Average number of grid points per atom       ...     6846
Average number of shells per batch           ...     4.32 (33.24%)
Average number of basis functions per batch  ...    13.75 (37.16%)
Average number of large shells per batch     ...     3.32 (76.86%)
Average number of large basis fcns per batch ...    10.39 (75.58%)
Maximum spatial batch extension              ...  27.84, 21.45, 18.12 au
Average spatial batch extension              ...   3.79,  3.54,  3.29 au

Final grid set up in    0.1 sec
Final integration                            ... done (   0.0 sec)
Change in XC energy                          ...     0.000026436
Integrated number of electrons               ...    15.000000216
Previous integrated no of electrons          ...    15.000002333

----------------
TOTAL SCF ENERGY
----------------

Total Energy       :         -339.95973690 Eh           -9250.77474 eV

Components:
Nuclear Repulsion  :            0.00000000 Eh               0.00000 eV
Electronic Energy  :         -339.95973690 Eh           -9250.77474 eV
One Electron Energy:         -471.36411924 Eh          -12826.46977 eV
Two Electron Energy:          131.40438234 Eh            3575.69503 eV

Virial components:
Potential Energy   :         -680.13762329 Eh          -18507.48563 eV
Kinetic Energy     :          340.17788639 Eh            9256.71089 eV
Virial Ratio       :            1.99935872


DFT components:
N(Alpha)           :        8.000000107624 electrons
N(Beta)            :        7.000000108143 electrons
N(Total)           :       15.000000215767 electrons
E(X)               :      -20.719043911355 Eh       
E(C)               :       -1.130039669789 Eh       
E(XC)              :      -21.849083581144 Eh       
DFET-embed. en.    :        0.000000000000 Eh       

---------------
SCF CONVERGENCE
---------------

  Last Energy change         ...   -8.1351e-09  Tolerance :   1.0000e-08
  Last MAX-Density change    ...    4.7737e-05  Tolerance :   1.0000e-07
  Last RMS-Density change    ...    3.2665e-06  Tolerance :   5.0000e-09
  Last DIIS Error            ...    1.3031e-05  Tolerance :   5.0000e-07

             **** THE GBW FILE WAS UPDATED (input.gbw) ****
             **** DENSITY FILE WAS UPDATED (input.scfp) ****
             **** ENERGY FILE WAS UPDATED (input.en.tmp) ****
----------------------
UHF SPIN CONTAMINATION
----------------------

Warning: in a DFT calculation there is little theoretical justification to 
         calculate <S**2> as in Hartree-Fock theory. We will do it anyways
         but you should keep in mind that the values have only limited relevance

Expectation value of <S**2>     :     1.755296
Ideal value S*(S+1) for S=0.5   :     0.750000
Deviation                       :     1.005296

             **** THE GBW FILE WAS UPDATED (input.gbw) ****
             **** DENSITY FILE WAS UPDATED (input.scfp) ****
----------------
ORBITAL ENERGIES
----------------
                 SPIN UP ORBITALS
  NO   OCC          E(Eh)            E(eV) 
   0   1.0000     -76.040128     -2069.1571 
   1   1.0000      -6.317058      -171.8959 
   2   1.0000      -4.568120      -124.3049 
   3   1.0000      -4.567961      -124.3005 
   4   1.0000      -4.560789      -124.1054 
   5   1.0000      -0.516969       -14.0674 
   6   1.0000      -0.221010        -6.0140 
   7   1.0000      -0.221000        -6.0137 
   8   0.0000      -0.187134        -5.0922 
   9   0.0000       0.196429         5.3451 
  10   0.0000       0.196435         5.3453 
  11   0.0000       0.209049         5.6885 
  12   0.0000       0.209054         5.6886 
  13   0.0000       0.214151         5.8273 
  14   0.0000       0.231521         6.3000 
  15   0.0000       0.231525         6.3001 
  16   0.0000       0.238135         6.4800 
  17   0.0000       0.245821         6.6891 
  18   0.0000       1.095636        29.8138 
  19   0.0000       1.095710        29.8158 
  20   0.0000       1.115199        30.3461 
  21   0.0000       1.115254        30.3476 
  22   0.0000       1.124902        30.6101 
  23   0.0000       1.236925        33.6584 
  24   0.0000       1.236927        33.6585 
  25   0.0000       1.256763        34.1983 
  26   0.0000       1.256774        34.1986 
  27   0.0000       1.271829        34.6082 
  28   0.0000       1.271841        34.6085 
  29   0.0000       1.277769        34.7699 
  30   0.0000       1.362614        37.0786 
  31   0.0000       1.362638        37.0793 
  32   0.0000       1.391884        37.8751 
  33   0.0000       6.981020       189.9632 
  34   0.0000       6.981223       189.9687 
  35   0.0000       6.998318       190.4339 
  36   0.0000      12.443845       338.6142 

                 SPIN DOWN ORBITALS
  NO   OCC          E(Eh)            E(eV) 
   0   1.0000     -76.035762     -2069.0383 
   1   1.0000      -6.312139      -171.7620 
   2   1.0000      -4.564470      -124.2056 
   3   1.0000      -4.557067      -124.0041 
   4   1.0000      -4.556908      -123.9998 
   5   1.0000      -0.487044       -13.2531 
   6   1.0000      -0.207570        -5.6483 
   7   0.0000      -0.170588        -4.6419 
   8   0.0000      -0.170577        -4.6416 
   9   0.0000       0.203206         5.5295 
  10   0.0000       0.223380         6.0785 
  11   0.0000       0.223398         6.0790 
  12   0.0000       0.236289         6.4298 
  13   0.0000       0.241226         6.5641 
  14   0.0000       0.241228         6.5641 
  15   0.0000       0.259568         7.0632 
  16   0.0000       0.269296         7.3279 
  17   0.0000       0.269300         7.3280 
  18   0.0000       1.119212        30.4553 
  19   0.0000       1.123687        30.5771 
  20   0.0000       1.123741        30.5785 
  21   0.0000       1.147542        31.2262 
  22   0.0000       1.147614        31.2282 
  23   0.0000       1.271986        34.6125 
  24   0.0000       1.275823        34.7169 
  25   0.0000       1.275837        34.7173 
  26   0.0000       1.287920        35.0461 
  27   0.0000       1.287932        35.0464 
  28   0.0000       1.314575        35.7714 
  29   0.0000       1.314579        35.7715 
  30   0.0000       1.374369        37.3985 
  31   0.0000       1.405938        38.2575 
  32   0.0000       1.405964        38.2582 
  33   0.0000       6.988335       190.1623 
  34   0.0000       7.006697       190.6619 
  35   0.0000       7.006899       190.6674 
  36   0.0000      12.454396       338.9013 

                    ********************************
                    * MULLIKEN POPULATION ANALYSIS *
                    ********************************

--------------------------------------------
MULLIKEN ATOMIC CHARGES AND SPIN POPULATIONS
--------------------------------------------
   0 P :   -0.000000    1.000000
Sum of atomic charges         :   -0.0000000
Sum of atomic spin populations:    1.0000000

-----------------------------------------------------
MULLIKEN REDUCED ORBITAL CHARGES AND SPIN POPULATIONS
-----------------------------------------------------
CHARGE
  0 P s       :     5.997354  s :     5.997354
      pz      :     2.999765  p :     8.999469
      px      :     2.999838
      py      :     2.999866
      dz2     :     0.001272  d :     0.002646
      dxz     :     0.000057
      dyz     :     0.001234
      dx2y2   :     0.000069
      dxy     :     0.000014
      f0      :     0.000144  f :     0.000531
      f+1     :     0.000083
      f-1     :     0.000169
      f+2     :     0.000064
      f-2     :     0.000059
      f+3     :     0.000006
      f-3     :     0.000006

SPIN
  0 P s       :     0.000354  s :     0.000354
      pz      :    -0.590645  p :     0.999960
      px      :     0.981748
      py      :     0.608858
      dz2     :    -0.000170  d :    -0.000354
      dxz     :    -0.000008
      dyz     :    -0.000165
      dx2y2   :    -0.000009
      dxy     :    -0.000002
      f0      :     0.000050  f :     0.000040
      f+1     :     0.000068
      f-1     :    -0.000150
      f+2     :     0.000013
      f-2     :     0.000049
      f+3     :     0.000005
      f-3     :     0.000004


                     *******************************
                     * LOEWDIN POPULATION ANALYSIS *
                     *******************************

-------------------------------------------
LOEWDIN ATOMIC CHARGES AND SPIN POPULATIONS
-------------------------------------------
   0 P :   -0.000000    1.000000

----------------------------------------------------
LOEWDIN REDUCED ORBITAL CHARGES AND SPIN POPULATIONS
----------------------------------------------------
CHARGE
  0 P s       :     5.997354  s :     5.997354
      pz      :     2.999765  p :     8.999469
      px      :     2.999838
      py      :     2.999866
      dz2     :     0.001272  d :     0.002646
      dxz     :     0.000057
      dyz     :     0.001234
      dx2y2   :     0.000069
      dxy     :     0.000014
      f0      :     0.000144  f :     0.000531
      f+1     :     0.000083
      f-1     :     0.000169
      f+2     :     0.000064
      f-2     :     0.000059
      f+3     :     0.000006
      f-3     :     0.000006

SPIN
  0 P s       :     0.000354  s :     0.000354
      pz      :    -0.590645  p :     0.999960
      px      :     0.981748
      py      :     0.608858
      dz2     :    -0.000170  d :    -0.000354
      dxz     :    -0.000008
      dyz     :    -0.000165
      dx2y2   :    -0.000009
      dxy     :    -0.000002
      f0      :     0.000050  f :     0.000040
      f+1     :     0.000068
      f-1     :    -0.000150
      f+2     :     0.000013
      f-2     :     0.000049
      f+3     :     0.000005
      f-3     :     0.000004


                      *****************************
                      * MAYER POPULATION ANALYSIS *
                      *****************************

  NA   - Mulliken gross atomic population
  ZA   - Total nuclear charge
  QA   - Mulliken gross atomic charge
  VA   - Mayer's total valence
  BVA  - Mayer's bonded valence
  FA   - Mayer's free valence

  ATOM       NA         ZA         QA         VA         BVA        FA
  0 P     15.0000    15.0000    -0.0000     3.0106     0.0000     3.0106

  Mayer bond orders larger than 0.100000


-------
TIMINGS
-------

Total SCF time: 0 days 0 hours 0 min 27 sec 

Total time                  ....      27.903 sec
Sum of individual times     ....      27.498 sec  ( 98.5%)

Fock matrix formation       ....      26.919 sec  ( 96.5%)
  Split-RI-J                ....      25.763 sec  ( 95.7% of F)
  XC integration            ....       0.551 sec  (  2.0% of F)
    Basis function eval.    ....       0.063 sec  ( 11.4% of XC)
    Density eval.           ....       0.101 sec  ( 18.4% of XC)
    XC-Functional eval.     ....       0.078 sec  ( 14.2% of XC)
    XC-Potential eval.      ....       0.069 sec  ( 12.5% of XC)
Diagonalization             ....       0.171 sec  (  0.6%)
Density matrix formation    ....       0.028 sec  (  0.1%)
Population analysis         ....       0.007 sec  (  0.0%)
Initial guess               ....       0.206 sec  (  0.7%)
Orbital Transformation      ....       0.000 sec  (  0.0%)
Orbital Orthonormalization  ....       0.000 sec  (  0.0%)
DIIS solution               ....       0.074 sec  (  0.3%)
Grid generation             ....       0.093 sec  (  0.3%)

-------------------------   --------------------
FINAL SINGLE POINT ENERGY      -339.959736898773
-------------------------   --------------------



           ************************************************************
           *        Program running with 4 parallel MPI-processes     *
           *              working on a common directory               *
           ************************************************************
------------------------------------------------------------------------------
                         ORCA SCF GRADIENT CALCULATION
------------------------------------------------------------------------------

Gradient of the Kohn-Sham DFT energy:
Kohn-Sham wavefunction type      ... UKS
Hartree-Fock exchange scaling    ...    0.000
Number of operators              ...    2
Number of atoms                  ...    1
Basis set dimensions             ...   37
Integral neglect threshold       ... 2.5e-11
Integral primitive cutoff        ... 2.5e-12

Nuclear repulsion gradient       ... done
One Electron Gradient            ... done
Pre-screening matrix             ... done
RI-J gradient                    ... done
Exchange-correlation gradient    ... done

------------------
CARTESIAN GRADIENT
------------------

   1   P   :    0.000000000    0.000000000   -0.000000000

Difference to translation invariance:
           :    0.0000000000    0.0000000000   -0.0000000000

Norm of the cartesian gradient     ...    0.0000000000
RMS gradient                       ...    0.0000000000
MAX gradient                       ...    0.0000000000

-------
TIMINGS
-------

Total SCF gradient time            ...        0.490 sec

One electron gradient       ....       0.015 sec  (  3.0%)
Prescreening matrices       ....       0.022 sec  (  4.5%)
RI-J Coulomb gradient       ....       0.156 sec  ( 31.7%)
XC gradient                 ....       0.016 sec  (  3.2%)

                            ***************************************
                            *     ORCA property calculations      *
                            ***************************************

                                    ---------------------
                                    Active property flags
                                    ---------------------
   (+) Dipole Moment


------------------------------------------------------------------------------
                       ORCA ELECTRIC PROPERTIES CALCULATION
------------------------------------------------------------------------------

Dipole Moment Calculation                       ... on
Quadrupole Moment Calculation                   ... off
Polarizability Calculation                      ... off
GBWName                                         ... input.gbw
Electron density file                           ... input.scfp
The origin for moment calculation is the CENTER OF MASS  = ( 0.000000,  0.000000  0.000000)

-------------
DIPOLE MOMENT
-------------
                                X             Y             Z
Electronic contribution:      0.00000       0.00000       0.00000
Nuclear contribution   :      0.00000       0.00000       0.00000
                        -----------------------------------------
Total Dipole Moment    :      0.00000       0.00000       0.00000
                        -----------------------------------------
Magnitude (a.u.)       :      0.00000
Magnitude (Debye)      :      0.00000



--------------------
Rotational spectrum 
--------------------
 
Rotational constants in cm-1:     0.000000     0.000000     0.000000 
Rotational constants in MHz :     0.000000     0.000000     0.000000 

 Dipole components along the rotational axes: 
x,y,z [a.u.] :     0.000000     0.000000     0.000000 
x,y,z [Debye]:     0.000000     0.000000     0.000000 

 

----------------------------------------------------------------------------
                           ORCA NUMERICAL FREQUENCIES
                              (4-process run)
----------------------------------------------------------------------------

Number of atoms                ... 1
Central differences            ... used
Number of displacements        ... 6
Numerical increment            ... 5.000e-03 bohr
IR-spectrum generation         ... on
Raman-spectrum generation      ... off
Surface Crossing Hessian       ... off

 WARNING: There are more processes than displacements to do
  ====> : Reducing number of processes to   3

The output will be reduced. Please look at the following files:
SCF program output             ... >input.lastscf
Integral program output        ... >input.lastint
Gradient program output        ... >input.lastgrad
Dipole moment program output   ... >input.lastmom
AutoCI program output          ... >input.lastautoci


         <<< Energy and Gradient at the input geometry >>>

        <<< Energy and Gradient at displaced geometries >>>
             <<<Displacing   1/coordinate 3 (+)>>>
             <<<Displacing   1/coordinate 1 (+)>>>
             <<<Displacing   1/coordinate 2 (+)>>>
             <<<Displacing   1/coordinate 3 (-)>>>
             <<<Displacing   1/coordinate 1 (-)>>>
             <<<Displacing   1/coordinate 2 (-)>>>

HESS(0,0)<Thresh ! - Please check !
HESS(1,1)<Thresh ! - Please check !
HESS(2,2)<Thresh ! - Please check !

############################################################################

WARNING: It seems that the Hessian Matrix ISN'T COMPLETE!
         Please check your results VERY carefully!
         For possible error information check files input.last*.dpl*
         If necessary - restart the job with local HessianFiles.
         Modify your input options to ensure convergence and/or
         avoid other sources of problems

############################################################################


Warning: T+R mode no 3 is zero 
Warning: T+R mode no 4 is zero 
Warning: T+R mode no 5 is zero 
WARNING     : the number of degrees of freedom found cannot be correct
CONSEQUENCE : will not project translation and rotation

-----------------------
VIBRATIONAL FREQUENCIES
-----------------------

Scaling factor for frequencies =  1.000000000 (already applied!)

   0:        -0.00 cm**-1
   1:        -0.00 cm**-1
   2:        -0.00 cm**-1


------------
NORMAL MODES
------------

These modes are the cartesian displacements weighted by the diagonal matrix
M(i,i)=1/sqrt(m[i]) where m[i] is the mass of the displaced atom
Thus, these vectors are normalized but *not* orthogonal

                   0          1          2    
      0      -0.667311   0.727378  -0.160057
      1       0.715685   0.566781  -0.408109
      2       0.206132   0.386886   0.898793


-----------
IR SPECTRUM  
-----------

 Mode    freq (cm**-1)   T**2         TX         TY         TZ
-------------------------------------------------------------------

The first frequency considered to be a vibration is 0
The total number of vibrations considered is 3


--------------------------
THERMOCHEMISTRY AT 298.15K
--------------------------

Temperature         ... 298.15 K
Pressure            ... 1.00 atm
Total Mass          ... 30.97 AMU
The molecule is recognized as being linear

Throughout the following assumptions are being made:
  (1) The electronic state is orbitally nondegenerate
      but the spin degeneracy is treated
  (2) There are no thermally accessible electronically excited states
  (3) Hindered rotations indicated by low frequency modes are not
      treated as such but are treated as vibrations and this may
      cause some error
  (4) All equations used are the standard statistical mechanics
      equations for an ideal gas
  (5) All vibrations are strictly harmonic

freq.      -0.00  E(vib)   ...       0.59 
freq.      -0.00  E(vib)   ...       0.59 
freq.      -0.00  E(vib)   ...       0.59 

------------
INNER ENERGY
------------

The inner energy is: U= E(el) + E(ZPE) + E(vib) + E(rot) + E(trans)
    E(el)   - is the total energy from the electronic structure calculation
              = E(kin-el) + E(nuc-el) + E(el-el) + E(nuc-nuc)
    E(ZPE)  - the the zero temperature vibrational energy from the frequency calculation
    E(vib)  - the the finite temperature correction to E(ZPE) due to population
              of excited vibrational states
    E(rot)  - is the rotational thermal energy
    E(trans)- is the translational thermal energy

Summary of contributions to the inner energy U:
Electronic energy                ...   -339.95973690 Eh
Zero point energy                ...     -0.00000002 Eh      -0.00 kcal/mol
Thermal vibrational correction   ...      0.00283265 Eh       1.78 kcal/mol
Thermal rotational correction    ...      0.00000000 Eh       0.00 kcal/mol
Thermal translational correction ...      0.00141627 Eh       0.89 kcal/mol
-----------------------------------------------------------------------
Total thermal energy                   -339.95548800 Eh


Summary of corrections to the electronic energy:
(perhaps to be used in another calculation)
Total thermal correction                  0.00424892 Eh       2.67 kcal/mol
Non-thermal (ZPE) correction             -0.00000002 Eh      -0.00 kcal/mol
-----------------------------------------------------------------------
Total correction                          0.00424890 Eh       2.67 kcal/mol


--------
ENTHALPY
--------

The enthalpy is H = U + kB*T
                kB is Boltzmann's constant
Total free energy                 ...   -339.95548800 Eh 
Thermal Enthalpy correction       ...      0.00094421 Eh       0.59 kcal/mol
-----------------------------------------------------------------------
Total Enthalpy                    ...   -339.95454379 Eh


Note: Rotational entropy computed according to Herzberg 
Infrared and Raman Spectra, Chapter V,1, Van Nostrand Reinhold, 1945 
Point Group:  Kh, Symmetry Number:   1  
Rotational constants in cm-1:     0.000000     0.000000     0.000000 

Vibrational entropy computed according to the QRRHO of S. Grimme
Chem.Eur.J. 2012 18 9955


-------
ENTROPY
-------

The entropy contributions are T*S = T*(S(el)+S(vib)+S(rot)+S(trans))
     S(el)   - electronic entropy
     S(vib)  - vibrational entropy
     S(rot)  - rotational entropy
     S(trans)- translational entropy
The entropies will be listed as mutliplied by the temperature to get
units of energy

Electronic entropy                ...      0.00065446 Eh      0.41 kcal/mol
Vibrational entropy               ...             nan Eh       nan kcal/mol
Rotational entropy                ...      0.00000000 Eh      0.00 kcal/mol
Translational entropy             ...      0.01721134 Eh     10.80 kcal/mol
-----------------------------------------------------------------------
Final entropy term                ...             nan Eh       nan kcal/mol

In case the symmetry of your molecule has not been determined correctly
or in case you have a reason to use a different symmetry number we print 
out the resulting rotational entropy values for sn=1,12 :
 --------------------------------------------------------
|  sn= 1 | S(rot)=             -inf Eh      -inf kcal/mol|
|  sn= 2 | S(rot)=             -inf Eh      -inf kcal/mol|
|  sn= 3 | S(rot)=             -inf Eh      -inf kcal/mol|
|  sn= 4 | S(rot)=             -inf Eh      -inf kcal/mol|
|  sn= 5 | S(rot)=             -inf Eh      -inf kcal/mol|
|  sn= 6 | S(rot)=             -inf Eh      -inf kcal/mol|
|  sn= 7 | S(rot)=             -inf Eh      -inf kcal/mol|
|  sn= 8 | S(rot)=             -inf Eh      -inf kcal/mol|
|  sn= 9 | S(rot)=             -inf Eh      -inf kcal/mol|
|  sn=10 | S(rot)=             -inf Eh      -inf kcal/mol|
|  sn=11 | S(rot)=             -inf Eh      -inf kcal/mol|
|  sn=12 | S(rot)=             -inf Eh      -inf kcal/mol|
 --------------------------------------------------------


-------------------
GIBBS FREE ENERGY
-------------------

The Gibbs free energy is G = H - T*S

Total enthalpy                    ...   -339.95454379 Eh 
Total entropy correction          ...            -nan Eh      -nan kcal/mol
-----------------------------------------------------------------------
Final Gibbs free energy         ...             nan Eh

For completeness - the Gibbs free energy minus the electronic energy
G-E(el)                           ...             nan Eh       nan kcal/mol


Total Time for Numerical Frequencies  :        10.780 sec
Time for Reference State(s)           :         3.070 sec
Time for Displacements                :         7.544 sec

Timings for individual modules:

Sum of individual times         ...       32.973 sec (=   0.550 min)
GTO integral calculation        ...        1.477 sec (=   0.025 min)   4.5 %
SCF iterations                  ...       29.518 sec (=   0.492 min)  89.5 %
SCF Gradient evaluation         ...        1.978 sec (=   0.033 min)   6.0 %
                             ****ORCA TERMINATED NORMALLY****
TOTAL RUN TIME: 0 days 0 hours 0 minutes 41 seconds 462 msec
