
                                 *****************
                                 * O   R   C   A *
                                 *****************

                                            #,                                       
                                            ###                                      
                                            ####                                     
                                            #####                                    
                                            ######                                   
                                           ########,                                 
                                     ,,################,,,,,                         
                               ,,#################################,,                 
                          ,,##########################################,,             
                       ,#########################################, ''#####,          
                    ,#############################################,,   '####,        
                  ,##################################################,,,,####,       
                ,###########''''           ''''###############################       
              ,#####''   ,,,,##########,,,,          '''####'''          '####       
            ,##' ,,,,###########################,,,                        '##       
           ' ,,###''''                  '''############,,,                           
         ,,##''                                '''############,,,,        ,,,,,,###''
      ,#''                                            '''#######################'''  
     '                                                          ''''####''''         
             ,#######,   #######,   ,#######,      ##                                
            ,#'     '#,  ##    ##  ,#'     '#,    #''#        ######   ,####,        
            ##       ##  ##   ,#'  ##            #'  '#       #        #'  '#        
            ##       ##  #######   ##           ,######,      #####,   #    #        
            '#,     ,#'  ##    ##  '#,     ,#' ,#      #,         ##   #,  ,#        
             '#######'   ##     ##  '#######'  #'      '#     #####' # '####'        



                  #######################################################
                  #                        -***-                        #
                  #          Department of theory and spectroscopy      #
                  #    Directorship and core code : Frank Neese         #
                  #        Max Planck Institute fuer Kohlenforschung    #
                  #                Kaiser Wilhelm Platz 1               #
                  #                 D-45470 Muelheim/Ruhr               #
                  #                      Germany                        #
                  #                                                     #
                  #                  All rights reserved                #
                  #                        -***-                        #
                  #######################################################


                         Program Version 5.0.3 -  RELEASE  -


 With contributions from (in alphabetic order):
   Daniel Aravena         : Magnetic Suceptibility
   Michael Atanasov       : Ab Initio Ligand Field Theory (pilot matlab implementation)
   Alexander A. Auer      : GIAO ZORA, VPT2 properties, NMR spectrum
   Ute Becker             : Parallelization
   Giovanni Bistoni       : ED, misc. LED, open-shell LED, HFLD
   Martin Brehm           : Molecular dynamics
   Dmytro Bykov           : SCF Hessian
   Vijay G. Chilkuri      : MRCI spin determinant printing, contributions to CSF-ICE
   Dipayan Datta          : RHF DLPNO-CCSD density
   Achintya Kumar Dutta   : EOM-CC, STEOM-CC
   Dmitry Ganyushin       : Spin-Orbit,Spin-Spin,Magnetic field MRCI
   Miquel Garcia          : C-PCM and meta-GGA Hessian, CC/C-PCM, Gaussian charge scheme
   Yang Guo               : DLPNO-NEVPT2, F12-NEVPT2, CIM, IAO-localization
   Andreas Hansen         : Spin unrestricted coupled pair/coupled cluster methods
   Benjamin Helmich-Paris : MC-RPA, TRAH-SCF, COSX integrals
   Lee Huntington         : MR-EOM, pCC
   Robert Izsak           : Overlap fitted RIJCOSX, COSX-SCS-MP3, EOM
   Marcus Kettner         : VPT2
   Christian Kollmar      : KDIIS, OOCD, Brueckner-CCSD(T), CCSD density, CASPT2, CASPT2-K
   Simone Kossmann        : Meta GGA functionals, TD-DFT gradient, OOMP2, MP2 Hessian
   Martin Krupicka        : Initial AUTO-CI
   Lucas Lang             : DCDCAS
   Marvin Lechner         : AUTO-CI (C++ implementation), FIC-MRCC
   Dagmar Lenk            : GEPOL surface, SMD
   Dimitrios Liakos       : Extrapolation schemes; Compound Job, initial MDCI parallelization
   Dimitrios Manganas     : Further ROCIS development; embedding schemes
   Dimitrios Pantazis     : SARC Basis sets
   Anastasios Papadopoulos: AUTO-CI, single reference methods and gradients
   Taras Petrenko         : DFT Hessian,TD-DFT gradient, ASA, ECA, R-Raman, ABS, FL, XAS/XES, NRVS
   Peter Pinski           : DLPNO-MP2, DLPNO-MP2 Gradient
   Christoph Reimann      : Effective Core Potentials
   Marius Retegan         : Local ZFS, SOC
   Christoph Riplinger    : Optimizer, TS searches, QM/MM, DLPNO-CCSD(T), (RO)-DLPNO pert. Triples
   Tobias Risthaus        : Range-separated hybrids, TD-DFT gradient, RPA, STAB
   Michael Roemelt        : Original ROCIS implementation
   Masaaki Saitow         : Open-shell DLPNO-CCSD energy and density
   Barbara Sandhoefer     : DKH picture change effects
   Avijit Sen             : IP-ROCIS
   Kantharuban Sivalingam : CASSCF convergence, NEVPT2, FIC-MRCI
   Bernardo de Souza      : ESD, SOC TD-DFT
   Georgi Stoychev        : AutoAux, RI-MP2 NMR, DLPNO-MP2 response
   Willem Van den Heuvel  : Paramagnetic NMR
   Boris Wezisla          : Elementary symmetry handling
   Frank Wennmohs         : Technical directorship


 We gratefully acknowledge several colleagues who have allowed us to
 interface, adapt or use parts of their codes:
   Stefan Grimme, W. Hujo, H. Kruse, P. Pracht,  : VdW corrections, initial TS optimization,
                  C. Bannwarth, S. Ehlert          DFT functionals, gCP, sTDA/sTD-DF
   Ed Valeev, F. Pavosevic, A. Kumar             : LibInt (2-el integral package), F12 methods
   Garnet Chan, S. Sharma, J. Yang, R. Olivares  : DMRG
   Ulf Ekstrom                                   : XCFun DFT Library
   Mihaly Kallay                                 : mrcc  (arbitrary order and MRCC methods)
   Jiri Pittner, Ondrej Demel                    : Mk-CCSD
   Frank Weinhold                                : gennbo (NPA and NBO analysis)
   Christopher J. Cramer and Donald G. Truhlar   : smd solvation model
   Lars Goerigk                                  : TD-DFT with DH, B97 family of functionals
   V. Asgeirsson, H. Jonsson                     : NEB implementation
   FAccTs GmbH                                   : IRC, NEB, NEB-TS, DLPNO-Multilevel, CI-OPT
                                                   MM, QMMM, 2- and 3-layer-ONIOM, Crystal-QMMM,
                                                   LR-CPCM, SF, NACMEs, symmetry and pop. for TD-DFT,
                                                   nearIR, NL-DFT gradient (VV10), updates on ESD,
                                                   ML-optimized integration grids
   S Lehtola, MJT Oliveira, MAL Marques          : LibXC Library
   Liviu Ungur et al                             : ANISO software


 Your calculation uses the libint2 library for the computation of 2-el integrals
 For citations please refer to: http://libint.valeyev.net

 Your ORCA version has been built with support for libXC version: 5.1.0
 For citations please refer to: https://tddft.org/programs/libxc/

 This ORCA versions uses:
   CBLAS   interface :  Fast vector & matrix operations
   LAPACKE interface :  Fast linear algebra routines
   Shared memory     :  Shared parallel matrices


SCAN-COORDS
================================================================================

----- Orbital basis set information -----
Your calculation utilizes the basis: def2-TZVP
   F. Weigend and R. Ahlrichs, Phys. Chem. Chem. Phys. 7, 3297 (2005).

----- AuxJ basis set information -----
Your calculation utilizes the auxiliary basis: def2/J
   F. Weigend, Phys. Chem. Chem. Phys. 8, 1057 (2006).

================================================================================
                                        WARNINGS
                       Please study these warnings very carefully!
================================================================================

WARNING: Gradients needed for Numerical Frequencies
  ===> : Setting RunTyp to EnGrad

WARNING: The environment variable RSH_COMMAND is not set!
  ===> : All Displacements for the Numerical Hessian or Gradient calculation
         will be started on localhost

INFO   : the flag for use of the SHARK integral package has been found!

================================================================================
                                       INPUT FILE
================================================================================
NAME = HCN_180.inp
|  1> ! PAL5 PBE0 NumFreq
|  2> %method
|  3>         method DFT
|  4>         runtyp Energy
|  5> end
|  6> %basis
|  7>         basis "def2-TZVP"
|  8> end
|  9> %coords
| 10>         CTyp xyz
| 11>         Charge 0
| 12>         Mult 1
| 13>         Units Angs
| 14>         coords
| 15> 	#180
| 16> 	C     -1.011290    0.960957    0.000001
| 17> 	N      0.144451    0.903804   -0.000000
| 18> 	H     -2.068270    1.013340    0.000003
| 19>         end
| 20> end
| 21> %eprnmr
| 22>         NMRShielding 1
| 23> 	Nuclei = all N {shift}
| 24>         Nuclei = all C {shift}
| 25>         Nuclei = all H {shift}
| 26> endd                         ****END OF INPUT****
================================================================================

                     *******************************
                     * Energy+Gradient Calculation *
                     *******************************

---------------------------------
CARTESIAN COORDINATES (ANGSTROEM)
---------------------------------
  C     -1.011290    0.960957    0.000001
  N      0.144451    0.903804   -0.000000
  H     -2.068270    1.013340    0.000003

----------------------------
CARTESIAN COORDINATES (A.U.)
----------------------------
  NO LB      ZA    FRAG     MASS         X           Y           Z
   0 C     6.0000    0    12.011   -1.911061    1.815946    0.000002
   1 N     7.0000    0    14.007    0.272973    1.707942   -0.000000
   2 H     1.0000    0     1.008   -3.908464    1.914935    0.000006

--------------------------------
INTERNAL COORDINATES (ANGSTROEM)
--------------------------------
 C      0   0   0     0.000000000000     0.00000000     0.00000000
 N      1   0   0     1.157153284786     0.00000000     0.00000000
 H      1   2   0     1.058277231680   179.99384232     0.00000000

---------------------------
INTERNAL COORDINATES (A.U.)
---------------------------
 C      0   0   0     0.000000000000     0.00000000     0.00000000
 N      1   0   0     2.186702803213     0.00000000     0.00000000
 H      1   2   0     1.999854141640   179.99384232     0.00000000

---------------------
BASIS SET INFORMATION
---------------------
There are 3 groups of distinct atoms

 Group   1 Type C   : 11s6p2d1f contracted to 5s3p2d1f pattern {62111/411/11/1}
 Group   2 Type N   : 11s6p2d1f contracted to 5s3p2d1f pattern {62111/411/11/1}
 Group   3 Type H   : 5s1p contracted to 3s1p pattern {311/1}

Atom   0C    basis set group =>   1
Atom   1N    basis set group =>   2
Atom   2H    basis set group =>   3
---------------------------------
AUXILIARY/J BASIS SET INFORMATION
---------------------------------
There are 3 groups of distinct atoms

 Group   1 Type C   : 12s5p4d2f1g contracted to 6s4p3d1f1g pattern {711111/2111/211/2/1}
 Group   2 Type N   : 12s5p4d2f1g contracted to 6s4p3d1f1g pattern {711111/2111/211/2/1}
 Group   3 Type H   : 5s2p1d contracted to 3s1p1d pattern {311/2/1}

Atom   0C    basis set group =>   1
Atom   1N    basis set group =>   2
Atom   2H    basis set group =>   3


           ************************************************************
           *        Program running with 5 parallel MPI-processes     *
           *              working on a common directory               *
           ************************************************************
------------------------------------------------------------------------------
                           ORCA GTO INTEGRAL CALCULATION
                           -- RI-GTO INTEGRALS CHOSEN --
------------------------------------------------------------------------------
------------------------------------------------------------------------------
                   ___                                                        
                  /   \      - P O W E R E D   B Y -                         
                 /     \                                                     
                 |  |  |   _    _      __       _____    __    __             
                 |  |  |  | |  | |    /  \     |  _  \  |  |  /  |          
                  \  \/   | |  | |   /    \    | | | |  |  | /  /          
                 / \  \   | |__| |  /  /\  \   | |_| |  |  |/  /          
                |  |  |   |  __  | /  /__\  \  |    /   |      \           
                |  |  |   | |  | | |   __   |  |    \   |  |\   \          
                \     /   | |  | | |  |  |  |  | |\  \  |  | \   \       
                 \___/    |_|  |_| |__|  |__|  |_| \__\ |__|  \__/        
                                                                              
                      - O R C A' S   B I G   F R I E N D -                    
                                      &                                       
                       - I N T E G R A L  F E E D E R -                       
                                                                              
 v1 FN, 2020, v2 2021                                                         
------------------------------------------------------------------------------


Reading SHARK input file HCN_180.SHARKINP.tmp ... ok
----------------------
SHARK INTEGRAL PACKAGE
----------------------

Number of atoms                             ...      3
Number of basis functions                   ...     68
Number of shells                            ...     26
Maximum angular momentum                    ...      3
Integral batch strategy                     ... SHARK/LIBINT Hybrid
RI-J (if used) integral strategy            ... SPLIT-RIJ (Revised 2003 algorithm where possible)
Printlevel                                  ...      1
Contraction scheme used                     ... SEGMENTED contraction
Coulomb Range Separation                    ... NOT USED
Exchange Range Separation                   ... NOT USED
Finite Nucleus Model                        ... NOT USED
Auxiliary Coulomb fitting basis             ... AVAILABLE
   # of basis functions in Aux-J            ...    109
   # of shells in Aux-J                     ...     35
   Maximum angular momentum in Aux-J        ...      4
Auxiliary J/K fitting basis                 ... NOT available
Auxiliary Correlation fitting basis         ... NOT available
Auxiliary 'external' fitting basis          ... NOT available
Integral threshold                          ...     2.500000e-11
Primitive cut-off                           ...     2.500000e-12
Primitive pair pre-selection threshold      ...     2.500000e-12

Calculating pre-screening integrals         ... done (  0.0 sec) Dimension = 26
Organizing shell pair data                  ... done (  0.0 sec)
Shell pair information
Total number of shell pairs                 ...       351
Shell pairs after pre-screening             ...       350
Total number of primitive shell pairs       ...      1128
Primitive shell pairs kept                  ...      1030
          la=0 lb=0:     90 shell pairs
          la=1 lb=0:     91 shell pairs
          la=1 lb=1:     28 shell pairs
          la=2 lb=0:     52 shell pairs
          la=2 lb=1:     28 shell pairs
          la=2 lb=2:     10 shell pairs
          la=3 lb=0:     26 shell pairs
          la=3 lb=1:     14 shell pairs
          la=3 lb=2:      8 shell pairs
          la=3 lb=3:      3 shell pairs

Calculating one electron integrals          ... done (  0.0 sec)
Calculating RI/J V-Matrix + Cholesky decomp.... done (  0.0 sec)
Calculating Nuclear repulsion               ... done (  0.0 sec) ENN=     23.879236808511 Eh

SHARK setup successfully completed in   0.1 seconds

Maximum memory used throughout the entire GTOINT-calculation: 14.0 MB


           ************************************************************
           *        Program running with 5 parallel MPI-processes     *
           *              working on a common directory               *
           ************************************************************
-------------------------------------------------------------------------------
                                 ORCA SCF
-------------------------------------------------------------------------------

------------
SCF SETTINGS
------------
Hamiltonian:
 Density Functional     Method          .... DFT(GTOs)
 Exchange Functional    Exchange        .... PBE
   PBE kappa parameter   XKappa         ....  0.804000
   PBE mue parameter    XMuePBE         ....  0.219520
 Correlation Functional Correlation     .... PBE
   PBE beta parameter  CBetaPBE         ....  0.066725
 LDA part of GGA corr.  LDAOpt          .... PW91-LDA
 Gradients option       PostSCFGGA      .... off
 Hybrid DFT is turned on
   Fraction HF Exchange ScalHFX         ....  0.250000
   Scaling of DF-GGA-X  ScalDFX         ....  0.750000
   Scaling of DF-GGA-C  ScalDFC         ....  1.000000
   Scaling of DF-LDA-C  ScalLDAC        ....  1.000000
   Perturbative correction              ....  0.000000
   Density functional embedding theory  .... OFF
   NL short-range parameter             ....  6.900000
 RI-approximation to the Coulomb term is turned on
   Number of AuxJ basis functions       .... 109
   RIJ-COSX (HFX calculated with COS-X)).... on


General Settings:
 Integral files         IntName         .... HCN_180
 Hartree-Fock type      HFTyp           .... RHF
 Total Charge           Charge          ....    0
 Multiplicity           Mult            ....    1
 Number of Electrons    NEL             ....   14
 Basis Dimension        Dim             ....   68
 Nuclear Repulsion      ENuc            ....     23.8792368085 Eh

Convergence Acceleration:
 DIIS                   CNVDIIS         .... on
   Start iteration      DIISMaxIt       ....    12
   Startup error        DIISStart       ....  0.200000
   # of expansion vecs  DIISMaxEq       ....     5
   Bias factor          DIISBfac        ....   1.050
   Max. coefficient     DIISMaxC        ....  10.000
 Trust-Rad. Augm. Hess. CNVTRAH         .... auto
   Auto Start mean grad. ratio tolernc. ....  1.125000
   Auto Start start iteration           ....    20
   Auto Start num. interpolation iter.  ....    10
   Max. Number of Micro iterations      ....    16
   Max. Number of Macro iterations      .... Maxiter - #DIIS iter
   Number of Davidson start vectors     ....     2
   Converg. threshold I  (grad. norm)   ....   1.000e-05
   Converg. threshold II (energy diff.) ....   1.000e-08
   Grad. Scal. Fac. for Micro threshold ....   0.100
   Minimum threshold for Micro iter.    ....   0.010
   NR start threshold (gradient norm)   ....   0.001
   Initial trust radius                 ....   0.400
   Minimum AH scaling param. (alpha)    ....   1.000
   Maximum AH scaling param. (alpha)    .... 1000.000
   Orbital update algorithm             .... Taylor
   White noise on init. David. guess    .... on
   Maximum white noise                  ....   0.010
   Quad. conv. algorithm                .... NR
 SOSCF                  CNVSOSCF        .... on
   Start iteration      SOSCFMaxIt      ....   150
   Startup grad/error   SOSCFStart      ....  0.003300
 Level Shifting         CNVShift        .... on
   Level shift para.    LevelShift      ....    0.2500
   Turn off err/grad.   ShiftErr        ....    0.0010
 Zerner damping         CNVZerner       .... off
 Static damping         CNVDamp         .... on
   Fraction old density DampFac         ....    0.7000
   Max. Damping (<1)    DampMax         ....    0.9800
   Min. Damping (>=0)   DampMin         ....    0.0000
   Turn off err/grad.   DampErr         ....    0.1000
 Fernandez-Rico         CNVRico         .... off

SCF Procedure:
 Maximum # iterations   MaxIter         ....   125
 SCF integral mode      SCFMode         .... Direct
   Integral package                     .... SHARK and LIBINT hybrid scheme
 Reset frequency        DirectResetFreq ....    20
 Integral Threshold     Thresh          ....  2.500e-11 Eh
 Primitive CutOff       TCut            ....  2.500e-12 Eh

Convergence Tolerance:
 Convergence Check Mode ConvCheckMode   .... Total+1el-Energy
 Convergence forced     ConvForced      .... 0
 Energy Change          TolE            ....  1.000e-08 Eh
 1-El. energy change                    ....  1.000e-05 Eh
 Orbital Gradient       TolG            ....  1.000e-05
 Orbital Rotation angle TolX            ....  1.000e-05
 DIIS Error             TolErr          ....  5.000e-07


Diagonalization of the overlap matrix:
Smallest eigenvalue                        ... 4.513e-04
Time for diagonalization                   ...    0.001 sec
Threshold for overlap eigenvalues          ... 1.000e-08
Number of eigenvalues below threshold      ... 0
Time for construction of square roots      ...    0.004 sec
Total time needed                          ...    0.005 sec

Time for model grid setup =    0.013 sec

------------------------------
INITIAL GUESS: MODEL POTENTIAL
------------------------------
Loading Hartree-Fock densities                     ... done
Calculating cut-offs                               ... done
Initializing the effective Hamiltonian             ... done
Setting up the integral package (SHARK)            ... done
Starting the Coulomb interaction                   ... done (   0.0 sec)
Reading the grid                                   ... done
Mapping shells                                     ... done
Starting the XC term evaluation                    ... done (   0.0 sec)
  promolecular density results
     # of electrons  =     13.999698632
     EX              =    -11.843095640
     EC              =     -0.432690538
     EX+EC           =    -12.275786177
Transforming the Hamiltonian                       ... done (   0.0 sec)
Diagonalizing the Hamiltonian                      ... done (   0.0 sec)
Back transforming the eigenvectors                 ... done (   0.0 sec)
Now organizing SCF variables                       ... done
                      ------------------
                      INITIAL GUESS DONE (   0.0 sec)
                      ------------------
-------------------
DFT GRID GENERATION
-------------------

General Integration Accuracy     IntAcc      ... 4.388
Radial Grid Type                 RadialGrid  ... OptM3 with GC (2021)
Angular Grid (max. ang.)         AngularGrid ... 4 (Lebedev-302)
Angular grid pruning method      GridPruning ... 4 (adaptive)
Weight generation scheme         WeightScheme... Becke
Basis function cutoff            BFCut       ... 1.0000e-11
Integration weight cutoff        WCut        ... 1.0000e-14
Angular grids for H and He will be reduced by one unit
Partially contracted basis set               ... off
Rotationally invariant grid construction     ... off

Total number of grid points                  ...    15532
Total number of batches                      ...      244
Average number of points per batch           ...       63
Average number of grid points per atom       ...     5177
Time for grid setup =    0.071 sec

--------------------
COSX GRID GENERATION
--------------------

GRIDX 1
-------
General Integration Accuracy     IntAcc      ... 3.816
Radial Grid Type                 RadialGrid  ... OptM3 with GC (2021)
Angular Grid (max. ang.)         AngularGrid ... 1 (Lebedev-50)
Angular grid pruning method      GridPruning ... 4 (adaptive)
Weight generation scheme         WeightScheme... Becke
Basis function cutoff            BFCut       ... 1.0000e-11
Integration weight cutoff        WCut        ... 1.0000e-14
Angular grids for H and He will be reduced by one unit
Partially contracted basis set               ... on
Rotationally invariant grid construction     ... off

Total number of grid points                  ...     1971
Total number of batches                      ...       33
Average number of points per batch           ...       59
Average number of grid points per atom       ...      657
UseSFitting                                  ... on

GRIDX 2
-------
General Integration Accuracy     IntAcc      ... 4.020
Radial Grid Type                 RadialGrid  ... OptM3 with GC (2021)
Angular Grid (max. ang.)         AngularGrid ... 2 (Lebedev-110)
Angular grid pruning method      GridPruning ... 4 (adaptive)
Weight generation scheme         WeightScheme... Becke
Basis function cutoff            BFCut       ... 1.0000e-11
Integration weight cutoff        WCut        ... 1.0000e-14
Angular grids for H and He will be reduced by one unit
Partially contracted basis set               ... on
Rotationally invariant grid construction     ... off

Total number of grid points                  ...     4562
Total number of batches                      ...       72
Average number of points per batch           ...       63
Average number of grid points per atom       ...     1521
UseSFitting                                  ... on

GRIDX 3
-------
General Integration Accuracy     IntAcc      ... 4.338
Radial Grid Type                 RadialGrid  ... OptM3 with GC (2021)
Angular Grid (max. ang.)         AngularGrid ... 3 (Lebedev-194)
Angular grid pruning method      GridPruning ... 4 (adaptive)
Weight generation scheme         WeightScheme... Becke
Basis function cutoff            BFCut       ... 1.0000e-11
Integration weight cutoff        WCut        ... 1.0000e-14
Angular grids for H and He will be reduced by one unit
Partially contracted basis set               ... on
Rotationally invariant grid construction     ... off

Total number of grid points                  ...    10149
Total number of batches                      ...      160
Average number of points per batch           ...       63
Average number of grid points per atom       ...     3383
UseSFitting                                  ... on

Time for X-Grid setup             =    0.087 sec

--------------
SCF ITERATIONS
--------------
ITER       Energy         Delta-E        Max-DP      RMS-DP      [F,P]     Damp
               ***  Starting incremental Fock matrix formation  ***
  0    -93.2607393669   0.000000000000 0.04201997  0.00216081  0.2832824 0.7000
  1    -93.3036721395  -0.042932772509 0.02459821  0.00137123  0.1060262 0.7000
                               ***Turning on DIIS***
  2    -93.3158590192  -0.012186879713 0.04081313  0.00186537  0.0403267 0.0000
  3    -93.3407691516  -0.024910132465 0.01874756  0.00116681  0.0563202 0.0000
  4    -93.3439745041  -0.003205352485 0.00873634  0.00048599  0.0305124 0.0000
  5    -93.3450236809  -0.001049176824 0.00324830  0.00015057  0.0066771 0.0000
                      *** Initiating the SOSCF procedure ***
                           *** Shutting down DIIS ***
                      *** Re-Reading the Fockian *** 
                      *** Removing any level shift *** 
ITER      Energy       Delta-E        Grad      Rot      Max-DP    RMS-DP
  6    -93.34507172  -0.0000480377  0.000335  0.000335  0.000868  0.000044
               *** Restarting incremental Fock matrix formation ***
  7    -93.34507043   0.0000012904  0.000237  0.000610  0.000358  0.000023
  8    -93.34506957   0.0000008546  0.000496  0.000366  0.000226  0.000013
  9    -93.34507070  -0.0000011258  0.000014  0.000017  0.000042  0.000001
 10    -93.34507070  -0.0000000011  0.000008  0.000007  0.000010  0.000000
                  ***Gradient check signals convergence***
              ***Rediagonalizing the Fockian in SOSCF/NRSCF***

               *****************************************************
               *                     SUCCESS                       *
               *           SCF CONVERGED AFTER  11 CYCLES          *
               *****************************************************

Old exchange energy                            =     -3.011075278 Eh
New exchange energy                            =     -3.011075447 Eh
Exchange energy change after final integration =     -0.000000169 Eh
Total energy after final integration           =    -93.345070871 Eh
Final COS-X integration done in                =     0.107 sec

----------------
TOTAL SCF ENERGY
----------------

Total Energy       :          -93.34507087 Eh           -2540.04851 eV

Components:
Nuclear Repulsion  :           23.87923681 Eh             649.78707 eV
Electronic Energy  :         -117.22430768 Eh           -3189.83558 eV
One Electron Energy:         -172.79524586 Eh           -4701.99768 eV
Two Electron Energy:           55.57093818 Eh            1512.16210 eV
Max COSX asymmetry :            0.00000115 Eh               0.00003 eV

Virial components:
Potential Energy   :         -186.26927417 Eh           -5068.64464 eV
Kinetic Energy     :           92.92420330 Eh            2528.59612 eV
Virial Ratio       :            2.00452915


DFT components:
N(Alpha)           :        7.000000032197 electrons
N(Beta)            :        7.000000032197 electrons
N(Total)           :       14.000000064393 electrons
E(X)               :       -9.035172765102 Eh       
E(C)               :       -0.441323968342 Eh       
E(XC)              :       -9.476496733444 Eh       
DFET-embed. en.    :        0.000000000000 Eh       

---------------
SCF CONVERGENCE
---------------

  Last Energy change         ...   -8.0615e-10  Tolerance :   1.0000e-08
  Last MAX-Density change    ...    5.5511e-16  Tolerance :   1.0000e-07
  Last RMS-Density change    ...    1.7195e-17  Tolerance :   5.0000e-09
  Last Orbital Gradient      ...    7.0154e-07  Tolerance :   1.0000e-05
  Last Orbital Rotation      ...    5.5005e-07  Tolerance :   1.0000e-05

             **** THE GBW FILE WAS UPDATED (HCN_180.gbw) ****
             **** DENSITY HCN_180.scfp WAS UPDATED ****
             **** ENERGY FILE WAS UPDATED (HCN_180.en.tmp) ****
             **** THE GBW FILE WAS UPDATED (HCN_180.gbw) ****
             **** DENSITY HCN_180.scfp WAS UPDATED ****
----------------
ORBITAL ENERGIES
----------------

  NO   OCC          E(Eh)            E(eV) 
   0   2.0000     -14.411469      -392.1560 
   1   2.0000     -10.279342      -279.7151 
   2   2.0000      -0.950586       -25.8668 
   3   2.0000      -0.631025       -17.1711 
   4   2.0000      -0.403799       -10.9879 
   5   2.0000      -0.381045       -10.3688 
   6   2.0000      -0.381045       -10.3688 
   7   0.0000       0.007546         0.2053 
   8   0.0000       0.007546         0.2053 
   9   0.0000       0.058028         1.5790 
  10   0.0000       0.101795         2.7700 
  11   0.0000       0.226017         6.1502 
  12   0.0000       0.226017         6.1502 
  13   0.0000       0.277062         7.5393 
  14   0.0000       0.370810        10.0903 
  15   0.0000       0.386258        10.5106 
  16   0.0000       0.441244        12.0069 
  17   0.0000       0.441245        12.0069 
  18   0.0000       0.635352        17.2888 
  19   0.0000       0.635380        17.2896 
  20   0.0000       0.640205        17.4209 
  21   0.0000       0.775473        21.1017 
  22   0.0000       0.775474        21.1017 
  23   0.0000       0.788218        21.4485 
  24   0.0000       1.189471        32.3671 
  25   0.0000       1.189474        32.3672 
  26   0.0000       1.217901        33.1408 
  27   0.0000       1.354539        36.8589 
  28   0.0000       1.404607        38.2213 
  29   0.0000       1.404608        38.2213 
  30   0.0000       1.477784        40.2125 
  31   0.0000       1.486892        40.4604 
  32   0.0000       1.486892        40.4604 
  33   0.0000       1.811362        49.2897 
  34   0.0000       1.982776        53.9541 
  35   0.0000       1.982777        53.9541 
  36   0.0000       2.238105        60.9019 
  37   0.0000       2.385689        64.9179 
  38   0.0000       2.385692        64.9180 
  39   0.0000       2.401881        65.3585 
  40   0.0000       2.641540        71.8800 
  41   0.0000       2.641542        71.8800 
  42   0.0000       2.731161        74.3187 
  43   0.0000       2.731217        74.3202 
  44   0.0000       2.826966        76.9256 
  45   0.0000       2.904113        79.0249 
  46   0.0000       2.904118        79.0251 
  47   0.0000       2.956063        80.4386 
  48   0.0000       2.956065        80.4386 
  49   0.0000       3.265149        88.8492 
  50   0.0000       3.471862        94.4742 
  51   0.0000       3.471864        94.4742 
  52   0.0000       3.799962       103.4022 
  53   0.0000       3.960333       107.7661 
  54   0.0000       3.960337       107.7663 
  55   0.0000       4.441405       120.8568 
  56   0.0000       4.441432       120.8575 
  57   0.0000       4.594892       125.0334 
  58   0.0000       4.594910       125.0339 
  59   0.0000       4.654375       126.6520 
  60   0.0000       4.979333       135.4945 
  61   0.0000       4.979336       135.4946 
  62   0.0000       5.399783       146.9356 
  63   0.0000       5.485988       149.2813 
  64   0.0000       5.485989       149.2813 
  65   0.0000       6.104121       166.1016 
  66   0.0000      22.332382       607.6950 
  67   0.0000      32.070803       872.6909 

                    ********************************
                    * MULLIKEN POPULATION ANALYSIS *
                    ********************************

-----------------------
MULLIKEN ATOMIC CHARGES
-----------------------
   0 C :   -0.168688
   1 N :   -0.031414
   2 H :    0.200103
Sum of atomic charges:   -0.0000000

--------------------------------
MULLIKEN REDUCED ORBITAL CHARGES
--------------------------------
  0 C s       :     3.235683  s :     3.235683
      pz      :     0.924143  p :     2.877068
      px      :     1.028520
      py      :     0.924405
      dz2     :     0.003624  d :     0.042787
      dxz     :     0.014112
      dyz     :     0.000034
      dx2y2   :     0.010902
      dxy     :     0.014115
      f0      :     0.001811  f :     0.013150
      f+1     :     0.001305
      f-1     :     0.000305
      f+2     :     0.002991
      f-2     :     0.000029
      f+3     :     0.002230
      f-3     :     0.004479
  1 N s       :     3.678480  s :     3.678480
      pz      :     1.033220  p :     3.303796
      px      :     1.236859
      py      :     1.033716
      dz2     :     0.002056  d :     0.046788
      dxz     :     0.019235
      dyz     :     0.000047
      dx2y2   :     0.006296
      dxy     :     0.019154
      f0      :     0.000407  f :     0.002350
      f+1     :     0.000067
      f-1     :     0.000068
      f+2     :     0.000672
      f-2     :     0.000007
      f+3     :     0.000132
      f-3     :     0.000998
  2 H s       :     0.777375  s :     0.777375
      pz      :     0.003291  p :     0.022523
      px      :     0.015910
      py      :     0.003322


                     *******************************
                     * LOEWDIN POPULATION ANALYSIS *
                     *******************************

----------------------
LOEWDIN ATOMIC CHARGES
----------------------
   0 C :   -0.166439
   1 N :    0.044505
   2 H :    0.121935

-------------------------------
LOEWDIN REDUCED ORBITAL CHARGES
-------------------------------
  0 C s       :     2.948443  s :     2.948443
      pz      :     0.896153  p :     2.947575
      px      :     1.154633
      py      :     0.896789
      dz2     :     0.032079  d :     0.218162
      dxz     :     0.044813
      dyz     :     0.000110
      dx2y2   :     0.095737
      dxy     :     0.045422
      f0      :     0.005575  f :     0.052259
      f+1     :     0.008427
      f-1     :     0.000948
      f+2     :     0.009203
      f-2     :     0.000090
      f+3     :     0.014073
      f-3     :     0.013943
  1 N s       :     3.326199  s :     3.326199
      pz      :     0.995755  p :     3.500539
      px      :     1.507780
      py      :     0.997005
      dz2     :     0.012053  d :     0.113020
      dxz     :     0.032325
      dyz     :     0.000079
      dx2y2   :     0.036123
      dxy     :     0.032440
      f0      :     0.001663  f :     0.015737
      f+1     :     0.002570
      f-1     :     0.000283
      f+2     :     0.002744
      f-2     :     0.000027
      f+3     :     0.004290
      f-3     :     0.004160
  2 H s       :     0.807584  s :     0.807584
      pz      :     0.011462  p :     0.070482
      px      :     0.047469
      py      :     0.011551


                      *****************************
                      * MAYER POPULATION ANALYSIS *
                      *****************************

  NA   - Mulliken gross atomic population
  ZA   - Total nuclear charge
  QA   - Mulliken gross atomic charge
  VA   - Mayer's total valence
  BVA  - Mayer's bonded valence
  FA   - Mayer's free valence

  ATOM       NA         ZA         QA         VA         BVA        FA
  0 C      6.1687     6.0000    -0.1687     4.0031     4.0031    -0.0000
  1 N      7.0314     7.0000    -0.0314     3.0867     3.0867    -0.0000
  2 H      0.7999     1.0000     0.2001     0.9571     0.9571    -0.0000

  Mayer bond orders larger than 0.100000
B(  0-C ,  1-N ) :   3.0664 B(  0-C ,  2-H ) :   0.9367 

-------
TIMINGS
-------

Total SCF time: 0 days 0 hours 0 min 1 sec 

Total time                  ....       1.899 sec
Sum of individual times     ....       1.757 sec  ( 92.5%)

Fock matrix formation       ....       1.482 sec  ( 78.0%)
  Split-RI-J                ....       0.166 sec  ( 11.2% of F)
  Chain of spheres X        ....       0.704 sec  ( 47.5% of F)
  XC integration            ....       0.327 sec  ( 22.1% of F)
    Basis function eval.    ....       0.045 sec  ( 13.8% of XC)
    Density eval.           ....       0.033 sec  ( 10.1% of XC)
    XC-Functional eval.     ....       0.014 sec  (  4.3% of XC)
    XC-Potential eval.      ....       0.045 sec  ( 13.8% of XC)
Diagonalization             ....       0.026 sec  (  1.4%)
Density matrix formation    ....       0.001 sec  (  0.1%)
Population analysis         ....       0.012 sec  (  0.6%)
Initial guess               ....       0.019 sec  (  1.0%)
Orbital Transformation      ....       0.000 sec  (  0.0%)
Orbital Orthonormalization  ....       0.000 sec  (  0.0%)
DIIS solution               ....       0.025 sec  (  1.3%)
SOSCF solution              ....       0.021 sec  (  1.1%)
Grid generation             ....       0.171 sec  (  9.0%)

Maximum memory used throughout the entire SCF-calculation: 58.4 MB

-------------------------   --------------------
FINAL SINGLE POINT ENERGY       -93.345070870554
-------------------------   --------------------



           ************************************************************
           *        Program running with 5 parallel MPI-processes     *
           *              working on a common directory               *
           ************************************************************
------------------------------------------------------------------------------
                         ORCA SCF GRADIENT CALCULATION
------------------------------------------------------------------------------

 ... reading COSX grid (gridx3)
Gradient of the Kohn-Sham DFT energy:
Kohn-Sham wavefunction type      ... RKS
Hartree-Fock exchange scaling    ...    0.250
Number of operators              ...    1
Number of atoms                  ...    3
Basis set dimensions             ...   68
Integral neglect threshold       ... 2.5e-11
Integral primitive cutoff        ... 2.5e-12
SHARK Integral package           ... ON

Nuc. rep. gradient       (SHARK) ... done (  0.0 sec)
HCore & Overlap gradient (SHARK) ... done (  0.0 sec)
RI-J gradient            (SHARK) ... done (  0.0 sec)
COSX-gradient                    ... done (  0.1 sec)
Exchange-correlation gradient    ... done

------------------
CARTESIAN GRADIENT
------------------

   1   C   :   -0.036345343    0.001790070   -0.000000024
   2   N   :    0.027919533   -0.001399971   -0.000000004
   3   H   :    0.008401204   -0.000412222    0.000000018

Difference to translation invariance:
           :   -0.0000246063   -0.0000221241   -0.0000000101

Difference to rotation invariance:
           :   -0.0000000172    0.0000000048    0.0000365299

Norm of the cartesian gradient     ...    0.0466518892
RMS gradient                       ...    0.0155506297
MAX gradient                       ...    0.0363453435

-------
TIMINGS
-------

Total SCF gradient time            ...        0.358 sec

One electron gradient       ....       0.003 sec  (  0.8%)
RI-J Coulomb gradient       ....       0.046 sec  ( 12.8%)
COSX gradient               ....       0.132 sec  ( 36.9%)
XC gradient                 ....       0.055 sec  ( 15.4%)

Maximum memory used throughout the entire SCFGRAD-calculation: 33.5 MB

                            ***************************************
                            *     ORCA property calculations      *
                            ***************************************

                                    ---------------------
                                    Active property flags
                                    ---------------------
   (+) Dipole Moment
   (+) Chemical Shifts
   (+) Nuclear properties (Hyperfine,Quadrupole)


------------------------------------------------------------------------------
                       ORCA ELECTRIC PROPERTIES CALCULATION
------------------------------------------------------------------------------

Dipole Moment Calculation                       ... on
Quadrupole Moment Calculation                   ... off
Polarizability Calculation                      ... off
GBWName                                         ... HCN_180.gbw
Electron density                                ... HCN_180.scfp
The origin for moment calculation is the CENTER OF MASS  = (-0.853621,  1.763662  0.000001)

-------------
DIPOLE MOMENT
-------------
                                X             Y             Z
Electronic contribution:      0.32696      -0.01622      -0.00000
Nuclear contribution   :     -1.51333       0.07494       0.00000
                        -----------------------------------------
Total Dipole Moment    :     -1.18637       0.05872       0.00000
                        -----------------------------------------
Magnitude (a.u.)       :      1.18782
Magnitude (Debye)      :      3.01920



--------------------
Rotational spectrum 
--------------------
 
Rotational constants in cm-1: 1768374877.146895     1.478585     1.478585 
Rotational constants in MHz : 53014545108531.578125 44326.850409 44326.850372 

 Dipole components along the rotational axes: 
x,y,z [a.u.] :     1.187819     0.000034     0.000000 
x,y,z [Debye]:     3.019196     0.000086     0.000000 

 


           ************************************************************
           *        Program running with 5 parallel MPI-processes     *
           *              working on a common directory               *
           ************************************************************
------------------------------------------------------------------------------
                                ORCA EPR/NMR CALCULATION
------------------------------------------------------------------------------

GBWName                      ... HCN_180.gbw
Electron density             ... HCN_180.scfp
Spin density                 ... HCN_180.scfr
Treatment of gauge           ... GIAO (approximations 1/2el = 0,0)
Details of the CP(SCF) procedure:
       Solver   = POPLE   
       MaxIter  =    64   
       Tolerance=    1.000e-04
       COSX Grid=     1   
       Op-0     =   0-  6 =>   7- 67
Multiplicity                 ... 1
g-tensor                     ... 0
NMR chemical shifts          ... 1
NMR spin-spin couplings      ... 0
NMR spectrum                 ... 0
Number of nuclei for epr/nmr ... 3
   Nucleus:   1N 
       Hyperfine : Isotope=   14 I=   1.000 P=  38.568
       Quadrupole: Isotope=   14 I=   1.000 Q=   0.020
       Spin-Orbit: Zeff=   4.550
       Nuclear Spin-Spin: Gn=   0.000
       EPRNMR Input: 
       rho(0)=N f(grad)=N a(iso)=N a(dip)=N a(orb)=N sigma(nmr)=Y spin-spin(nmr)=all-N,DSO-N,PSO-N,FC-N,SD-N
   Nucleus:   0C 
       Hyperfine : Isotope=   13 I=   0.500 P= 134.190
       Quadrupole: Isotope=   13 I=   0.500 Q=   0.000
       Spin-Orbit: Zeff=   3.600
       Nuclear Spin-Spin: Gn=   0.000
       EPRNMR Input: 
       rho(0)=N f(grad)=N a(iso)=N a(dip)=N a(orb)=N sigma(nmr)=Y spin-spin(nmr)=all-N,DSO-N,PSO-N,FC-N,SD-N
   Nucleus:   2H 
       Hyperfine : Isotope=    1 I=   0.500 P= 533.551
       Quadrupole: Isotope=    2 I=   1.000 Q=   0.003
       Spin-Orbit: Zeff=   1.000
       Nuclear Spin-Spin: Gn=   0.000
       EPRNMR Input: 
       rho(0)=N f(grad)=N a(iso)=N a(dip)=N a(orb)=N sigma(nmr)=Y spin-spin(nmr)=all-N,DSO-N,PSO-N,FC-N,SD-N
Forming RHS of the CP-SCF equations         ... 
Calculating right hand sides for GIAO treatment        ... 
  Entering RightHandSide GIAO. ScalHFX=    0.2500 NeedHFX=1
     -> 1-electron GIAO integrals will be done analytically
     -> RIJCOSX used in SCF. Same chosen for GIAO calculation.
     Making grid for GIAO integrations   ...

GRID GIAO
---------

General Integration Accuracy     IntAcc      ... 4.388
Radial Grid Type                 RadialGrid  ... OptM3 with GC (2021)
Angular Grid (max. ang.)         AngularGrid ... 4 (Lebedev-302)
Angular grid pruning method      GridPruning ... 4 (adaptive)
Weight generation scheme         WeightScheme... Becke
Basis function cutoff            BFCut       ... 1.0000e-11
Integration weight cutoff        WCut        ... 1.0000e-14
Angular grids for H and He will be reduced by one unit
Partially contracted basis set               ... off
Rotationally invariant grid construction     ... off

Total number of grid points                  ...    15532
Total number of batches                      ...      244
Average number of points per batch           ...       63
Average number of grid points per atom       ...     5177

  One-electron GIAO integrals (SHARK)     ... done
  Calculating G(B)[P]                     ... (RI-J: SHARK-ok) (COSX-ok) (add-J+K:ok) => dG/dB done
  DFT XC-terms                            ... done
  Extracting occupied and virtual blocks  ... 
  Operator  0  NO=   7 NV=  61 
  Transforming and RHS contribution       ... done
  Adding eps_i * S(B)_ai terms            ... done
  Projecting overlap derivatives          ... done
  Building G[dS/dB_ij] (COSX)             ... done
  Transforming to MO basis                ... done
  Summing G[dS/dB_ij] into RHS contribs.  ... done

  GIAO profiling information: 
    Total GIAO time               ...       0.3 sec
       GIAO 1-electron integrals  ...       0.0 sec (  0.9%)
       GIAO G(dS/dB) terms        ...       0.1 sec ( 15.5%)
       GIAO RI-J                  ...       0.0 sec (  6.3%)
       GIAO COSX                  ...       0.1 sec ( 22.3%)
       GIAO XC-terms              ...       0.1 sec ( 37.5%)

  GIAO right hand side done


------------------------------------------------------------------------------
                           ORCA CP-SCF CALCULATION
------------------------------------------------------------------------------

Input orbitals are from        ... HCN_180.gbw
Input Perturbation             ... HCN_180.pin.tmp
Wavefunction output            ... HCN_180.pout.tmp
Perturbation mode              ... Imaginary perturbation
Solver                         ... POPLE
Max. number of iterations      ... 64
Convergence tolerance          ... 1.000e-04
Integral handling              ... Direct
DFT GridXC                     ... 1
COSX GridX                     ... 1
COSX IntAccX                   ... 3.067
COSX Algorithm                 ... Auto
Number of perturbations        ... 3
Number of operators            ... 1
Orbital ranges used for CP-SCF:
 Operator 0:  Orbitals   0...  6  to   7... 67
Variables per perturbation     ... 427
DFT calculation                         ... on
XC functional terms                     ... off
Hybrid DFT                              ... on
   Exchange mixing (SCF)                ...  0.250
   Exchange mixing (CP-SCF)             ...  0.250
   GGA exch. scaling(SCF)               ...  0.750
   GGA exch. scaling (CP-SCF)           ...  0.750
   GGA corr. scaling (SCF)              ...  1.000
   GGA corr. scaling (CP-SCF)           ...  1.000

CP-SCF GRID
-----------

General Integration Accuracy     IntAcc      ... 3.467
Radial Grid Type                 RadialGrid  ... OptM3 with GC (2021)
Angular Grid (max. ang.)         AngularGrid ... 1 (Lebedev-50)
Angular grid pruning method      GridPruning ... 4 (adaptive)
Weight generation scheme         WeightScheme... Becke
Basis function cutoff            BFCut       ... 1.0000e-11
Integration weight cutoff        WCut        ... 1.0000e-14
Angular grids for H and He will be reduced by one unit
Partially contracted basis set               ... off
Rotationally invariant grid construction     ... off

Total number of grid points                  ...     2355
Total number of batches                      ...       39
Average number of points per batch           ...       60
Average number of grid points per atom       ...      785

CP-SCF GRIDX
------------

General Integration Accuracy     IntAcc      ... 3.067
Radial Grid Type                 RadialGrid  ... OptM3 with GC (2021)
Angular Grid (max. ang.)         AngularGrid ... 1 (Lebedev-50)
Angular grid pruning method      GridPruning ... 4 (adaptive)
Weight generation scheme         WeightScheme... Becke
Basis function cutoff            BFCut       ... 1.0000e-11
Integration weight cutoff        WCut        ... 1.0000e-14
Angular grids for H and He will be reduced by one unit
Partially contracted basis set               ... on
Rotationally invariant grid construction     ... off

Total number of grid points                  ...     1048
Total number of batches                      ...       18
Average number of points per batch           ...       58
Average number of grid points per atom       ...      349

Memory available               ... 1015.8 MB
Memory needed per perturbation ...   0.2 MB
Perturbations treated per batch... 3
Number of batches              ... 1
     CP-SCF ITERATION   0:   2.9454e-01 (   0.0 sec   0/  3 done)
     CP-SCF ITERATION   1:   6.8773e-03 (   0.0 sec   0/  3 done)
     CP-SCF ITERATION   2:   5.7281e-04 (   0.0 sec   1/  3 done)
     CP-SCF ITERATION   3:   4.1351e-05 (   0.0 sec   3/  3 done)
                    *** THE CP-SCF HAS CONVERGED ***

Forming final perturbed densities           ... done
Transforming perturbed density to AO basis  ... done

Magnetic field perturbation calculated in  0.573 sec

---------------
CHEMICAL SHIFTS
---------------

Note: using conversion factor for au to ppm alpha^2/2 =   26.625677252 
GIAO: Analytic para- and diamagnetic shielding integrals (SHARK)       ...done
 --------------
 Nucleus   1N :
 --------------

Diamagnetic contribution to the shielding tensor (ppm) : 
           339.769         -1.228        -0.000
            -1.226        314.993         0.000
            -0.000          0.000       314.931

Paramagnetic contribution to the shielding tensor (ppm): 
            -1.343        -27.143        -0.001
           -27.160       -548.733         0.000
            -0.001          0.000      -550.072

Total shielding tensor (ppm): 
           338.425        -28.371        -0.001
           -28.386       -233.740         0.000
            -0.001          0.000      -235.141


 Diagonalized sT*s matrix:
 
 sDSO           314.931          314.933          339.829  iso=     323.231
 sPSO          -550.072         -550.077           -0.000  iso=    -366.716
        ---------------  ---------------  ---------------
 Total         -235.141         -235.144          339.829  iso=     -43.485

 --------------
 Nucleus   0C :
 --------------

Diamagnetic contribution to the shielding tensor (ppm) : 
           278.499         -0.785        -0.000
            -0.783        262.674         0.000
            -0.000          0.000       262.636

Paramagnetic contribution to the shielding tensor (ppm): 
            -0.707        -14.290        -0.000
           -14.282       -288.835         0.000
            -0.000          0.000      -289.531

Total shielding tensor (ppm): 
           277.792        -15.075        -0.000
           -15.065        -26.161         0.000
            -0.000          0.000       -26.895


 Diagonalized sT*s matrix:
 
 sDSO           262.636          262.636          278.537  iso=     267.936
 sPSO          -289.531         -289.542            0.000  iso=    -193.024
        ---------------  ---------------  ---------------
 Total          -26.895          -26.906          278.537  iso=      74.912

 --------------
 Nucleus   2H :
 --------------

Diamagnetic contribution to the shielding tensor (ppm) : 
            39.300         -0.720        -0.000
            -0.720         24.804         0.000
            -0.000          0.000        24.769

Paramagnetic contribution to the shielding tensor (ppm): 
            -0.000         -0.010         0.000
            -0.008         -0.202        -0.000
             0.000         -0.000        -0.203

Total shielding tensor (ppm): 
            39.300         -0.730        -0.000
            -0.728         24.602         0.000
            -0.000         -0.000        24.565


 Diagonalized sT*s matrix:
 
 sDSO            24.769           24.768           39.336  iso=      29.624
 sPSO            -0.203           -0.202            0.000  iso=      -0.135
        ---------------  ---------------  ---------------
 Total           24.565           24.566           39.336  iso=      29.489



--------------------------------
CHEMICAL SHIELDING SUMMARY (ppm)
--------------------------------


  Nucleus  Element    Isotropic     Anisotropy
  -------  -------  ------------   ------------
      1       N          -43.485        574.972 
      0       C           74.912        305.438 
      2       H           29.489         14.770 



Maximum memory used throughout the entire EPRNMR-calculation: 10.2 MB

----------------------------------------------------------------------------
                           ORCA NUMERICAL FREQUENCIES
                              (5-process run)
----------------------------------------------------------------------------

Number of atoms                ... 3
Central differences            ... used
Number of displacements        ... 18
Numerical increment            ... 5.000e-03 bohr
IR-spectrum generation         ... on
Raman-spectrum generation      ... off
Surface Crossing Hessian       ... off

The output will be reduced. Please look at the following files:
SCF program output             ... >HCN_180.lastscf
Integral program output        ... >HCN_180.lastint
Gradient program output        ... >HCN_180.lastgrad
Dipole moment program output   ... >HCN_180.lastmom
AutoCI program output          ... >HCN_180.lastautoci

	<< Calculating on displaced geometry   1 (of  18) >>
	<< Calculating on displaced geometry   2 (of  18) >>
	<< Calculating on displaced geometry   4 (of  18) >>
	<< Calculating on displaced geometry   5 (of  18) >>
	<< Calculating on displaced geometry   3 (of  18) >>
	<< Calculating on displaced geometry   8 (of  18) >>
	<< Calculating on displaced geometry   6 (of  18) >>
	<< Calculating on displaced geometry   7 (of  18) >>
	<< Calculating on displaced geometry   9 (of  18) >>
	<< Calculating on displaced geometry  10 (of  18) >>
	<< Calculating on displaced geometry  11 (of  18) >>
	<< Calculating on displaced geometry  12 (of  18) >>
	<< Calculating on displaced geometry  13 (of  18) >>
	<< Calculating on displaced geometry  14 (of  18) >>
	<< Calculating on displaced geometry  15 (of  18) >>
	<< Calculating on displaced geometry  16 (of  18) >>
	<< Calculating on displaced geometry  17 (of  18) >>
	<< Calculating on displaced geometry  18 (of  18) >>

-----------------------
VIBRATIONAL FREQUENCIES
-----------------------

Scaling factor for frequencies =  1.000000000 (already applied!)

   0:         0.00 cm**-1
   1:         0.00 cm**-1
   2:         0.00 cm**-1
   3:         0.00 cm**-1
   4:         0.00 cm**-1
   5:         0.00 cm**-1
   6:       710.52 cm**-1
   7:      2150.44 cm**-1
   8:      3546.23 cm**-1


------------
NORMAL MODES
------------

These modes are the cartesian displacements weighted by the diagonal matrix
M(i,i)=1/sqrt(m[i]) where m[i] is the mass of the displaced atom
Thus, these vectors are normalized but *not* orthogonal

                  0          1          2          3          4          5    
      0       0.000000   0.000000   0.000000   0.000000   0.000000   0.000000
      1       0.000000   0.000000   0.000000   0.000000   0.000000   0.000000
      2       0.000000   0.000000   0.000000   0.000000   0.000000   0.000000
      3       0.000000   0.000000   0.000000   0.000000   0.000000   0.000000
      4       0.000000   0.000000   0.000000   0.000000   0.000000   0.000000
      5       0.000000   0.000000   0.000000   0.000000   0.000000   0.000000
      6       0.000000   0.000000   0.000000   0.000000   0.000000   0.000000
      7       0.000000   0.000000   0.000000   0.000000   0.000000   0.000000
      8       0.000000   0.000000   0.000000   0.000000   0.000000   0.000000
                  6          7          8    
      0       0.007838   0.436083  -0.117048
      1       0.158105  -0.021575   0.005801
      2       0.001511  -0.000000   0.000000
      3      -0.003210  -0.430692   0.029018
      4      -0.064762   0.021305  -0.001437
      5      -0.000619   0.000000  -0.000000
      6      -0.048785   0.788605   0.991466
      7      -0.984005  -0.038974  -0.049159
      8      -0.009403  -0.000000  -0.000002


-----------
IR SPECTRUM
-----------

 Mode   freq       eps      Int      T**2         TX        TY        TZ
       cm**-1   L/(mol*cm) km/mol    a.u.
----------------------------------------------------------------------------
  6:    710.52   0.007649   38.65  0.003359  (-0.003175 -0.057869 -0.000585)
  7:   2150.44   0.000195    0.99  0.000028  ( 0.005314 -0.000259 -0.000000)
  8:   3546.23   0.013728   69.38  0.001208  ( 0.034714 -0.001730 -0.000000)

* The epsilon (eps) is given for a Dirac delta lineshape.
** The dipole moment derivative (T) already includes vibrational overlap.

The first frequency considered to be a vibration is 6
The total number of vibrations considered is 3


--------------------------
THERMOCHEMISTRY AT 298.15K
--------------------------

Temperature         ... 298.15 K
Pressure            ... 1.00 atm
Total Mass          ... 27.03 AMU

Throughout the following assumptions are being made:
  (1) The electronic state is orbitally nondegenerate
  (2) There are no thermally accessible electronically excited states
  (3) Hindered rotations indicated by low frequency modes are not
      treated as such but are treated as vibrations and this may
      cause some error
  (4) All equations used are the standard statistical mechanics
      equations for an ideal gas
  (5) All vibrations are strictly harmonic

freq.     710.52  E(vib)   ...       0.07 
freq.    2150.44  E(vib)   ...       0.00 
freq.    3546.23  E(vib)   ...       0.00 

------------
INNER ENERGY
------------

The inner energy is: U= E(el) + E(ZPE) + E(vib) + E(rot) + E(trans)
    E(el)   - is the total energy from the electronic structure calculation
              = E(kin-el) + E(nuc-el) + E(el-el) + E(nuc-nuc)
    E(ZPE)  - the the zero temperature vibrational energy from the frequency calculation
    E(vib)  - the the finite temperature correction to E(ZPE) due to population
              of excited vibrational states
    E(rot)  - is the rotational thermal energy
    E(trans)- is the translational thermal energy

Summary of contributions to the inner energy U:
Electronic energy                ...    -93.34507087 Eh
Zero point energy                ...      0.01459663 Eh       9.16 kcal/mol
Thermal vibrational correction   ...      0.00010882 Eh       0.07 kcal/mol
Thermal rotational correction    ...      0.00141627 Eh       0.89 kcal/mol
Thermal translational correction ...      0.00141627 Eh       0.89 kcal/mol
-----------------------------------------------------------------------
Total thermal energy                    -93.32753288 Eh


Summary of corrections to the electronic energy:
(perhaps to be used in another calculation)
Total thermal correction                  0.00294136 Eh       1.85 kcal/mol
Non-thermal (ZPE) correction              0.01459663 Eh       9.16 kcal/mol
-----------------------------------------------------------------------
Total correction                          0.01753799 Eh      11.01 kcal/mol


--------
ENTHALPY
--------

The enthalpy is H = U + kB*T
                kB is Boltzmann's constant
Total free energy                 ...    -93.32753288 Eh 
Thermal Enthalpy correction       ...      0.00094421 Eh       0.59 kcal/mol
-----------------------------------------------------------------------
Total Enthalpy                    ...    -93.32658867 Eh


Note: Rotational entropy computed according to Herzberg 
Infrared and Raman Spectra, Chapter V,1, Van Nostrand Reinhold, 1945 
Point Group:  Cinfv, Symmetry Number:   1  
Rotational constants in cm-1: 1768374877.146895     1.478585     1.478585 

Vibrational entropy computed according to the QRRHO of S. Grimme
Chem.Eur.J. 2012 18 9955


-------
ENTROPY
-------

The entropy contributions are T*S = T*(S(el)+S(vib)+S(rot)+S(trans))
     S(el)   - electronic entropy
     S(vib)  - vibrational entropy
     S(rot)  - rotational entropy
     S(trans)- translational entropy
The entropies will be listed as multiplied by the temperature to get
units of energy

Electronic entropy                ...      0.00000000 Eh      0.00 kcal/mol
Vibrational entropy               ...      0.00014008 Eh      0.09 kcal/mol
Rotational entropy                ...     -0.00091082 Eh     -0.57 kcal/mol
Translational entropy             ...      0.01701823 Eh     10.68 kcal/mol
-----------------------------------------------------------------------
Final entropy term                ...      0.01624750 Eh     10.20 kcal/mol

In case the symmetry of your molecule has not been determined correctly
or in case you have a reason to use a different symmetry number we print 
out the resulting rotational entropy values for sn=1,12 :
 --------------------------------------------------------
|  sn= 1 | S(rot)=      -0.00091082 Eh     -0.57 kcal/mol|
|  sn= 2 | S(rot)=      -0.00156528 Eh     -0.98 kcal/mol|
|  sn= 3 | S(rot)=      -0.00194811 Eh     -1.22 kcal/mol|
|  sn= 4 | S(rot)=      -0.00221973 Eh     -1.39 kcal/mol|
|  sn= 5 | S(rot)=      -0.00243042 Eh     -1.53 kcal/mol|
|  sn= 6 | S(rot)=      -0.00260257 Eh     -1.63 kcal/mol|
|  sn= 7 | S(rot)=      -0.00274811 Eh     -1.72 kcal/mol|
|  sn= 8 | S(rot)=      -0.00287419 Eh     -1.80 kcal/mol|
|  sn= 9 | S(rot)=      -0.00298540 Eh     -1.87 kcal/mol|
|  sn=10 | S(rot)=      -0.00308488 Eh     -1.94 kcal/mol|
|  sn=11 | S(rot)=      -0.00317487 Eh     -1.99 kcal/mol|
|  sn=12 | S(rot)=      -0.00325702 Eh     -2.04 kcal/mol|
 --------------------------------------------------------


-------------------
GIBBS FREE ENERGY
-------------------

The Gibbs free energy is G = H - T*S

Total enthalpy                    ...    -93.32658867 Eh 
Total entropy correction          ...     -0.01624750 Eh    -10.20 kcal/mol
-----------------------------------------------------------------------
Final Gibbs free energy         ...    -93.34283617 Eh

For completeness - the Gibbs free energy minus the electronic energy
G-E(el)                           ...      0.00223470 Eh      1.40 kcal/mol



Timings for individual modules:

Sum of individual times         ...       71.133 sec (=   1.186 min)
GTO integral calculation        ...        4.535 sec (=   0.076 min)   6.4 %
SCF iterations                  ...        7.234 sec (=   0.121 min)  10.2 %
EPR/NMR calculation             ...        2.261 sec (=   0.038 min)   3.2 %
SCF Gradient evaluation         ...        3.938 sec (=   0.066 min)   5.5 %
Numerical frequency calculation ...       53.165 sec (=   0.886 min)  74.7 %
                             ****ORCA TERMINATED NORMALLY****
TOTAL RUN TIME: 0 days 0 hours 1 minutes 4 seconds 539 msec
