
                                 *****************
                                 * O   R   C   A *
                                 *****************

                                            #,                                       
                                            ###                                      
                                            ####                                     
                                            #####                                    
                                            ######                                   
                                           ########,                                 
                                     ,,################,,,,,                         
                               ,,#################################,,                 
                          ,,##########################################,,             
                       ,#########################################, ''#####,          
                    ,#############################################,,   '####,        
                  ,##################################################,,,,####,       
                ,###########''''           ''''###############################       
              ,#####''   ,,,,##########,,,,          '''####'''          '####       
            ,##' ,,,,###########################,,,                        '##       
           ' ,,###''''                  '''############,,,                           
         ,,##''                                '''############,,,,        ,,,,,,###''
      ,#''                                            '''#######################'''  
     '                                                          ''''####''''         
             ,#######,   #######,   ,#######,      ##                                
            ,#'     '#,  ##    ##  ,#'     '#,    #''#        ######   ,####,        
            ##       ##  ##   ,#'  ##            #'  '#       #        #'  '#        
            ##       ##  #######   ##           ,######,      #####,   #    #        
            '#,     ,#'  ##    ##  '#,     ,#' ,#      #,         ##   #,  ,#        
             '#######'   ##     ##  '#######'  #'      '#     #####' # '####'        



                  #######################################################
                  #                        -***-                        #
                  #          Department of theory and spectroscopy      #
                  #    Directorship and core code : Frank Neese         #
                  #        Max Planck Institute fuer Kohlenforschung    #
                  #                Kaiser Wilhelm Platz 1               #
                  #                 D-45470 Muelheim/Ruhr               #
                  #                      Germany                        #
                  #                                                     #
                  #                  All rights reserved                #
                  #                        -***-                        #
                  #######################################################


                         Program Version 5.0.3 -  RELEASE  -


 With contributions from (in alphabetic order):
   Daniel Aravena         : Magnetic Suceptibility
   Michael Atanasov       : Ab Initio Ligand Field Theory (pilot matlab implementation)
   Alexander A. Auer      : GIAO ZORA, VPT2 properties, NMR spectrum
   Ute Becker             : Parallelization
   Giovanni Bistoni       : ED, misc. LED, open-shell LED, HFLD
   Martin Brehm           : Molecular dynamics
   Dmytro Bykov           : SCF Hessian
   Vijay G. Chilkuri      : MRCI spin determinant printing, contributions to CSF-ICE
   Dipayan Datta          : RHF DLPNO-CCSD density
   Achintya Kumar Dutta   : EOM-CC, STEOM-CC
   Dmitry Ganyushin       : Spin-Orbit,Spin-Spin,Magnetic field MRCI
   Miquel Garcia          : C-PCM and meta-GGA Hessian, CC/C-PCM, Gaussian charge scheme
   Yang Guo               : DLPNO-NEVPT2, F12-NEVPT2, CIM, IAO-localization
   Andreas Hansen         : Spin unrestricted coupled pair/coupled cluster methods
   Benjamin Helmich-Paris : MC-RPA, TRAH-SCF, COSX integrals
   Lee Huntington         : MR-EOM, pCC
   Robert Izsak           : Overlap fitted RIJCOSX, COSX-SCS-MP3, EOM
   Marcus Kettner         : VPT2
   Christian Kollmar      : KDIIS, OOCD, Brueckner-CCSD(T), CCSD density, CASPT2, CASPT2-K
   Simone Kossmann        : Meta GGA functionals, TD-DFT gradient, OOMP2, MP2 Hessian
   Martin Krupicka        : Initial AUTO-CI
   Lucas Lang             : DCDCAS
   Marvin Lechner         : AUTO-CI (C++ implementation), FIC-MRCC
   Dagmar Lenk            : GEPOL surface, SMD
   Dimitrios Liakos       : Extrapolation schemes; Compound Job, initial MDCI parallelization
   Dimitrios Manganas     : Further ROCIS development; embedding schemes
   Dimitrios Pantazis     : SARC Basis sets
   Anastasios Papadopoulos: AUTO-CI, single reference methods and gradients
   Taras Petrenko         : DFT Hessian,TD-DFT gradient, ASA, ECA, R-Raman, ABS, FL, XAS/XES, NRVS
   Peter Pinski           : DLPNO-MP2, DLPNO-MP2 Gradient
   Christoph Reimann      : Effective Core Potentials
   Marius Retegan         : Local ZFS, SOC
   Christoph Riplinger    : Optimizer, TS searches, QM/MM, DLPNO-CCSD(T), (RO)-DLPNO pert. Triples
   Tobias Risthaus        : Range-separated hybrids, TD-DFT gradient, RPA, STAB
   Michael Roemelt        : Original ROCIS implementation
   Masaaki Saitow         : Open-shell DLPNO-CCSD energy and density
   Barbara Sandhoefer     : DKH picture change effects
   Avijit Sen             : IP-ROCIS
   Kantharuban Sivalingam : CASSCF convergence, NEVPT2, FIC-MRCI
   Bernardo de Souza      : ESD, SOC TD-DFT
   Georgi Stoychev        : AutoAux, RI-MP2 NMR, DLPNO-MP2 response
   Willem Van den Heuvel  : Paramagnetic NMR
   Boris Wezisla          : Elementary symmetry handling
   Frank Wennmohs         : Technical directorship


 We gratefully acknowledge several colleagues who have allowed us to
 interface, adapt or use parts of their codes:
   Stefan Grimme, W. Hujo, H. Kruse, P. Pracht,  : VdW corrections, initial TS optimization,
                  C. Bannwarth, S. Ehlert          DFT functionals, gCP, sTDA/sTD-DF
   Ed Valeev, F. Pavosevic, A. Kumar             : LibInt (2-el integral package), F12 methods
   Garnet Chan, S. Sharma, J. Yang, R. Olivares  : DMRG
   Ulf Ekstrom                                   : XCFun DFT Library
   Mihaly Kallay                                 : mrcc  (arbitrary order and MRCC methods)
   Jiri Pittner, Ondrej Demel                    : Mk-CCSD
   Frank Weinhold                                : gennbo (NPA and NBO analysis)
   Christopher J. Cramer and Donald G. Truhlar   : smd solvation model
   Lars Goerigk                                  : TD-DFT with DH, B97 family of functionals
   V. Asgeirsson, H. Jonsson                     : NEB implementation
   FAccTs GmbH                                   : IRC, NEB, NEB-TS, DLPNO-Multilevel, CI-OPT
                                                   MM, QMMM, 2- and 3-layer-ONIOM, Crystal-QMMM,
                                                   LR-CPCM, SF, NACMEs, symmetry and pop. for TD-DFT,
                                                   nearIR, NL-DFT gradient (VV10), updates on ESD,
                                                   ML-optimized integration grids
   S Lehtola, MJT Oliveira, MAL Marques          : LibXC Library
   Liviu Ungur et al                             : ANISO software


 Your calculation uses the libint2 library for the computation of 2-el integrals
 For citations please refer to: http://libint.valeyev.net

 Your ORCA version has been built with support for libXC version: 5.1.0
 For citations please refer to: https://tddft.org/programs/libxc/

 This ORCA versions uses:
   CBLAS   interface :  Fast vector & matrix operations
   LAPACKE interface :  Fast linear algebra routines
   Shared memory     :  Shared parallel matrices


SCAN-COORDS
================================================================================

----- Orbital basis set information -----
Your calculation utilizes the basis: def2-TZVP
   F. Weigend and R. Ahlrichs, Phys. Chem. Chem. Phys. 7, 3297 (2005).

----- AuxJ basis set information -----
Your calculation utilizes the auxiliary basis: def2/J
   F. Weigend, Phys. Chem. Chem. Phys. 8, 1057 (2006).

================================================================================
                                        WARNINGS
                       Please study these warnings very carefully!
================================================================================

WARNING: Gradients needed for Numerical Frequencies
  ===> : Setting RunTyp to EnGrad

WARNING: The environment variable RSH_COMMAND is not set!
  ===> : All Displacements for the Numerical Hessian or Gradient calculation
         will be started on localhost

INFO   : the flag for use of the SHARK integral package has been found!

================================================================================
                                       INPUT FILE
================================================================================
NAME = HCN_165.inp
|  1> ! PAL5 PBE0 NumFreq
|  2> %method
|  3>         method DFT
|  4>         runtyp Energy
|  5> end
|  6> %basis
|  7>         basis "def2-TZVP"
|  8> end
|  9> %coords
| 10>         CTyp xyz
| 11>         Charge 0
| 12>         Mult 1
| 13>         Units Angs
| 14>         coords
| 15> 	#165
| 16> 	C     -1.011290    0.960957    0.000001
| 17> 	N      0.105157    0.905748   -0.299168
| 18> 	H     -2.068270    1.013340    0.000003
| 19> 	end
| 20> end
| 21> %eprnmr
| 22>         NMRShielding 1
| 23>         Nuclei = all N {shift}
| 24>         Nuclei = all C {shift}
| 25>         Nuclei = all H {shift}
| 26> endd                         ****END OF INPUT****
================================================================================

                     *******************************
                     * Energy+Gradient Calculation *
                     *******************************

---------------------------------
CARTESIAN COORDINATES (ANGSTROEM)
---------------------------------
  C     -1.011290    0.960957    0.000001
  N      0.105157    0.905748   -0.299168
  H     -2.068270    1.013340    0.000003

----------------------------
CARTESIAN COORDINATES (A.U.)
----------------------------
  NO LB      ZA    FRAG     MASS         X           Y           Z
   0 C     6.0000    0    12.011   -1.911061    1.815946    0.000002
   1 N     7.0000    0    14.007    0.198718    1.711616   -0.565346
   2 H     1.0000    0     1.008   -3.908464    1.914935    0.000006

--------------------------------
INTERNAL COORDINATES (ANGSTROEM)
--------------------------------
 C      0   0   0     0.000000000000     0.00000000     0.00000000
 N      1   0   0     1.157153415953     0.00000000     0.00000000
 H      1   2   0     1.058277231680   165.01673252     0.00000000

---------------------------
INTERNAL COORDINATES (A.U.)
---------------------------
 C      0   0   0     0.000000000000     0.00000000     0.00000000
 N      1   0   0     2.186703051082     0.00000000     0.00000000
 H      1   2   0     1.999854141640   165.01673252     0.00000000

---------------------
BASIS SET INFORMATION
---------------------
There are 3 groups of distinct atoms

 Group   1 Type C   : 11s6p2d1f contracted to 5s3p2d1f pattern {62111/411/11/1}
 Group   2 Type N   : 11s6p2d1f contracted to 5s3p2d1f pattern {62111/411/11/1}
 Group   3 Type H   : 5s1p contracted to 3s1p pattern {311/1}

Atom   0C    basis set group =>   1
Atom   1N    basis set group =>   2
Atom   2H    basis set group =>   3
---------------------------------
AUXILIARY/J BASIS SET INFORMATION
---------------------------------
There are 3 groups of distinct atoms

 Group   1 Type C   : 12s5p4d2f1g contracted to 6s4p3d1f1g pattern {711111/2111/211/2/1}
 Group   2 Type N   : 12s5p4d2f1g contracted to 6s4p3d1f1g pattern {711111/2111/211/2/1}
 Group   3 Type H   : 5s2p1d contracted to 3s1p1d pattern {311/2/1}

Atom   0C    basis set group =>   1
Atom   1N    basis set group =>   2
Atom   2H    basis set group =>   3


           ************************************************************
           *        Program running with 5 parallel MPI-processes     *
           *              working on a common directory               *
           ************************************************************
------------------------------------------------------------------------------
                           ORCA GTO INTEGRAL CALCULATION
                           -- RI-GTO INTEGRALS CHOSEN --
------------------------------------------------------------------------------
------------------------------------------------------------------------------
                   ___                                                        
                  /   \      - P O W E R E D   B Y -                         
                 /     \                                                     
                 |  |  |   _    _      __       _____    __    __             
                 |  |  |  | |  | |    /  \     |  _  \  |  |  /  |          
                  \  \/   | |  | |   /    \    | | | |  |  | /  /          
                 / \  \   | |__| |  /  /\  \   | |_| |  |  |/  /          
                |  |  |   |  __  | /  /__\  \  |    /   |      \           
                |  |  |   | |  | | |   __   |  |    \   |  |\   \          
                \     /   | |  | | |  |  |  |  | |\  \  |  | \   \       
                 \___/    |_|  |_| |__|  |__|  |_| \__\ |__|  \__/        
                                                                              
                      - O R C A' S   B I G   F R I E N D -                    
                                      &                                       
                       - I N T E G R A L  F E E D E R -                       
                                                                              
 v1 FN, 2020, v2 2021                                                         
------------------------------------------------------------------------------


Reading SHARK input file HCN_165.SHARKINP.tmp ... ok
----------------------
SHARK INTEGRAL PACKAGE
----------------------

Number of atoms                             ...      3
Number of basis functions                   ...     68
Number of shells                            ...     26
Maximum angular momentum                    ...      3
Integral batch strategy                     ... SHARK/LIBINT Hybrid
RI-J (if used) integral strategy            ... SPLIT-RIJ (Revised 2003 algorithm where possible)
Printlevel                                  ...      1
Contraction scheme used                     ... SEGMENTED contraction
Coulomb Range Separation                    ... NOT USED
Exchange Range Separation                   ... NOT USED
Finite Nucleus Model                        ... NOT USED
Auxiliary Coulomb fitting basis             ... AVAILABLE
   # of basis functions in Aux-J            ...    109
   # of shells in Aux-J                     ...     35
   Maximum angular momentum in Aux-J        ...      4
Auxiliary J/K fitting basis                 ... NOT available
Auxiliary Correlation fitting basis         ... NOT available
Auxiliary 'external' fitting basis          ... NOT available
Integral threshold                          ...     2.500000e-11
Primitive cut-off                           ...     2.500000e-12
Primitive pair pre-selection threshold      ...     2.500000e-12

Calculating pre-screening integrals         ... done (  0.0 sec) Dimension = 26
Organizing shell pair data                  ... done (  0.0 sec)
Shell pair information
Total number of shell pairs                 ...       351
Shell pairs after pre-screening             ...       350
Total number of primitive shell pairs       ...      1128
Primitive shell pairs kept                  ...      1030
          la=0 lb=0:     90 shell pairs
          la=1 lb=0:     91 shell pairs
          la=1 lb=1:     28 shell pairs
          la=2 lb=0:     52 shell pairs
          la=2 lb=1:     28 shell pairs
          la=2 lb=2:     10 shell pairs
          la=3 lb=0:     26 shell pairs
          la=3 lb=1:     14 shell pairs
          la=3 lb=2:      8 shell pairs
          la=3 lb=3:      3 shell pairs

Calculating one electron integrals          ... done (  0.0 sec)
Calculating RI/J V-Matrix + Cholesky decomp.... done (  0.0 sec)
Calculating Nuclear repulsion               ... done (  0.0 sec) ENN=     23.893600863511 Eh

SHARK setup successfully completed in   0.1 seconds

Maximum memory used throughout the entire GTOINT-calculation: 14.0 MB


           ************************************************************
           *        Program running with 5 parallel MPI-processes     *
           *              working on a common directory               *
           ************************************************************
-------------------------------------------------------------------------------
                                 ORCA SCF
-------------------------------------------------------------------------------

------------
SCF SETTINGS
------------
Hamiltonian:
 Density Functional     Method          .... DFT(GTOs)
 Exchange Functional    Exchange        .... PBE
   PBE kappa parameter   XKappa         ....  0.804000
   PBE mue parameter    XMuePBE         ....  0.219520
 Correlation Functional Correlation     .... PBE
   PBE beta parameter  CBetaPBE         ....  0.066725
 LDA part of GGA corr.  LDAOpt          .... PW91-LDA
 Gradients option       PostSCFGGA      .... off
 Hybrid DFT is turned on
   Fraction HF Exchange ScalHFX         ....  0.250000
   Scaling of DF-GGA-X  ScalDFX         ....  0.750000
   Scaling of DF-GGA-C  ScalDFC         ....  1.000000
   Scaling of DF-LDA-C  ScalLDAC        ....  1.000000
   Perturbative correction              ....  0.000000
   Density functional embedding theory  .... OFF
   NL short-range parameter             ....  6.900000
 RI-approximation to the Coulomb term is turned on
   Number of AuxJ basis functions       .... 109
   RIJ-COSX (HFX calculated with COS-X)).... on


General Settings:
 Integral files         IntName         .... HCN_165
 Hartree-Fock type      HFTyp           .... RHF
 Total Charge           Charge          ....    0
 Multiplicity           Mult            ....    1
 Number of Electrons    NEL             ....   14
 Basis Dimension        Dim             ....   68
 Nuclear Repulsion      ENuc            ....     23.8936008635 Eh

Convergence Acceleration:
 DIIS                   CNVDIIS         .... on
   Start iteration      DIISMaxIt       ....    12
   Startup error        DIISStart       ....  0.200000
   # of expansion vecs  DIISMaxEq       ....     5
   Bias factor          DIISBfac        ....   1.050
   Max. coefficient     DIISMaxC        ....  10.000
 Trust-Rad. Augm. Hess. CNVTRAH         .... auto
   Auto Start mean grad. ratio tolernc. ....  1.125000
   Auto Start start iteration           ....    20
   Auto Start num. interpolation iter.  ....    10
   Max. Number of Micro iterations      ....    16
   Max. Number of Macro iterations      .... Maxiter - #DIIS iter
   Number of Davidson start vectors     ....     2
   Converg. threshold I  (grad. norm)   ....   1.000e-05
   Converg. threshold II (energy diff.) ....   1.000e-08
   Grad. Scal. Fac. for Micro threshold ....   0.100
   Minimum threshold for Micro iter.    ....   0.010
   NR start threshold (gradient norm)   ....   0.001
   Initial trust radius                 ....   0.400
   Minimum AH scaling param. (alpha)    ....   1.000
   Maximum AH scaling param. (alpha)    .... 1000.000
   Orbital update algorithm             .... Taylor
   White noise on init. David. guess    .... on
   Maximum white noise                  ....   0.010
   Quad. conv. algorithm                .... NR
 SOSCF                  CNVSOSCF        .... on
   Start iteration      SOSCFMaxIt      ....   150
   Startup grad/error   SOSCFStart      ....  0.003300
 Level Shifting         CNVShift        .... on
   Level shift para.    LevelShift      ....    0.2500
   Turn off err/grad.   ShiftErr        ....    0.0010
 Zerner damping         CNVZerner       .... off
 Static damping         CNVDamp         .... on
   Fraction old density DampFac         ....    0.7000
   Max. Damping (<1)    DampMax         ....    0.9800
   Min. Damping (>=0)   DampMin         ....    0.0000
   Turn off err/grad.   DampErr         ....    0.1000
 Fernandez-Rico         CNVRico         .... off

SCF Procedure:
 Maximum # iterations   MaxIter         ....   125
 SCF integral mode      SCFMode         .... Direct
   Integral package                     .... SHARK and LIBINT hybrid scheme
 Reset frequency        DirectResetFreq ....    20
 Integral Threshold     Thresh          ....  2.500e-11 Eh
 Primitive CutOff       TCut            ....  2.500e-12 Eh

Convergence Tolerance:
 Convergence Check Mode ConvCheckMode   .... Total+1el-Energy
 Convergence forced     ConvForced      .... 0
 Energy Change          TolE            ....  1.000e-08 Eh
 1-El. energy change                    ....  1.000e-05 Eh
 Orbital Gradient       TolG            ....  1.000e-05
 Orbital Rotation angle TolX            ....  1.000e-05
 DIIS Error             TolErr          ....  5.000e-07


Diagonalization of the overlap matrix:
Smallest eigenvalue                        ... 5.156e-04
Time for diagonalization                   ...    0.001 sec
Threshold for overlap eigenvalues          ... 1.000e-08
Number of eigenvalues below threshold      ... 0
Time for construction of square roots      ...    0.005 sec
Total time needed                          ...    0.006 sec

Time for model grid setup =    0.033 sec

------------------------------
INITIAL GUESS: MODEL POTENTIAL
------------------------------
Loading Hartree-Fock densities                     ... done
Calculating cut-offs                               ... done
Initializing the effective Hamiltonian             ... done
Setting up the integral package (SHARK)            ... done
Starting the Coulomb interaction                   ... done (   0.0 sec)
Reading the grid                                   ... done
Mapping shells                                     ... done
Starting the XC term evaluation                    ... done (   0.0 sec)
  promolecular density results
     # of electrons  =     13.999685571
     EX              =    -11.843201722
     EC              =     -0.432732366
     EX+EC           =    -12.275934088
Transforming the Hamiltonian                       ... done (   0.0 sec)
Diagonalizing the Hamiltonian                      ... done (   0.0 sec)
Back transforming the eigenvectors                 ... done (   0.0 sec)
Now organizing SCF variables                       ... done
                      ------------------
                      INITIAL GUESS DONE (   0.1 sec)
                      ------------------
-------------------
DFT GRID GENERATION
-------------------

General Integration Accuracy     IntAcc      ... 4.388
Radial Grid Type                 RadialGrid  ... OptM3 with GC (2021)
Angular Grid (max. ang.)         AngularGrid ... 4 (Lebedev-302)
Angular grid pruning method      GridPruning ... 4 (adaptive)
Weight generation scheme         WeightScheme... Becke
Basis function cutoff            BFCut       ... 1.0000e-11
Integration weight cutoff        WCut        ... 1.0000e-14
Angular grids for H and He will be reduced by one unit
Partially contracted basis set               ... off
Rotationally invariant grid construction     ... off

Total number of grid points                  ...    15543
Total number of batches                      ...      244
Average number of points per batch           ...       63
Average number of grid points per atom       ...     5181
Time for grid setup =    0.056 sec

--------------------
COSX GRID GENERATION
--------------------

GRIDX 1
-------
General Integration Accuracy     IntAcc      ... 3.816
Radial Grid Type                 RadialGrid  ... OptM3 with GC (2021)
Angular Grid (max. ang.)         AngularGrid ... 1 (Lebedev-50)
Angular grid pruning method      GridPruning ... 4 (adaptive)
Weight generation scheme         WeightScheme... Becke
Basis function cutoff            BFCut       ... 1.0000e-11
Integration weight cutoff        WCut        ... 1.0000e-14
Angular grids for H and He will be reduced by one unit
Partially contracted basis set               ... on
Rotationally invariant grid construction     ... off

Total number of grid points                  ...     1979
Total number of batches                      ...       33
Average number of points per batch           ...       59
Average number of grid points per atom       ...      660
UseSFitting                                  ... on

GRIDX 2
-------
General Integration Accuracy     IntAcc      ... 4.020
Radial Grid Type                 RadialGrid  ... OptM3 with GC (2021)
Angular Grid (max. ang.)         AngularGrid ... 2 (Lebedev-110)
Angular grid pruning method      GridPruning ... 4 (adaptive)
Weight generation scheme         WeightScheme... Becke
Basis function cutoff            BFCut       ... 1.0000e-11
Integration weight cutoff        WCut        ... 1.0000e-14
Angular grids for H and He will be reduced by one unit
Partially contracted basis set               ... on
Rotationally invariant grid construction     ... off

Total number of grid points                  ...     4571
Total number of batches                      ...       73
Average number of points per batch           ...       62
Average number of grid points per atom       ...     1524
UseSFitting                                  ... on

GRIDX 3
-------
General Integration Accuracy     IntAcc      ... 4.338
Radial Grid Type                 RadialGrid  ... OptM3 with GC (2021)
Angular Grid (max. ang.)         AngularGrid ... 3 (Lebedev-194)
Angular grid pruning method      GridPruning ... 4 (adaptive)
Weight generation scheme         WeightScheme... Becke
Basis function cutoff            BFCut       ... 1.0000e-11
Integration weight cutoff        WCut        ... 1.0000e-14
Angular grids for H and He will be reduced by one unit
Partially contracted basis set               ... on
Rotationally invariant grid construction     ... off

Total number of grid points                  ...    10173
Total number of batches                      ...      160
Average number of points per batch           ...       63
Average number of grid points per atom       ...     3391
UseSFitting                                  ... on

Time for X-Grid setup             =    0.093 sec

--------------
SCF ITERATIONS
--------------
ITER       Energy         Delta-E        Max-DP      RMS-DP      [F,P]     Damp
               ***  Starting incremental Fock matrix formation  ***
  0    -93.2588716656   0.000000000000 0.04176235  0.00210132  0.2804388 0.7000
  1    -93.3015841364  -0.042712470789 0.02436236  0.00131383  0.1045663 0.7000
                               ***Turning on DIIS***
  2    -93.3137191895  -0.012135053085 0.04037911  0.00180217  0.0404996 0.0000
  3    -93.3385184598  -0.024799270253 0.01876235  0.00110434  0.0559553 0.0000
  4    -93.3416887606  -0.003170300877 0.00837819  0.00046831  0.0306296 0.0000
  5    -93.3427552739  -0.001066513229 0.00299477  0.00013938  0.0066599 0.0000
                      *** Initiating the SOSCF procedure ***
                           *** Shutting down DIIS ***
                      *** Re-Reading the Fockian *** 
                      *** Removing any level shift *** 
ITER      Energy       Delta-E        Grad      Rot      Max-DP    RMS-DP
  6    -93.34280413  -0.0000488514  0.000324  0.000324  0.000760  0.000041
               *** Restarting incremental Fock matrix formation ***
  7    -93.34279652   0.0000076074  0.000233  0.000603  0.000358  0.000022
  8    -93.34279561   0.0000009062  0.000510  0.000375  0.000231  0.000013
  9    -93.34279679  -0.0000011824  0.000015  0.000015  0.000043  0.000001
 10    -93.34279680  -0.0000000013  0.000009  0.000007  0.000010  0.000000
                  ***Gradient check signals convergence***
              ***Rediagonalizing the Fockian in SOSCF/NRSCF***

               *****************************************************
               *                     SUCCESS                       *
               *           SCF CONVERGED AFTER  11 CYCLES          *
               *****************************************************

Old exchange energy                            =     -3.010899112 Eh
New exchange energy                            =     -3.010897591 Eh
Exchange energy change after final integration =      0.000001521 Eh
Total energy after final integration           =    -93.342795275 Eh
Final COS-X integration done in                =     0.110 sec

----------------
TOTAL SCF ENERGY
----------------

Total Energy       :          -93.34279527 Eh           -2539.98659 eV

Components:
Nuclear Repulsion  :           23.89360086 Eh             650.17793 eV
Electronic Energy  :         -117.23639614 Eh           -3190.16452 eV
One Electron Energy:         -172.81924365 Eh           -4702.65070 eV
Two Electron Energy:           55.58284751 Eh            1512.48617 eV
Max COSX asymmetry :            0.00000089 Eh               0.00002 eV

Virial components:
Potential Energy   :         -186.27215340 Eh           -5068.72298 eV
Kinetic Energy     :           92.92935812 Eh            2528.73639 eV
Virial Ratio       :            2.00444894


DFT components:
N(Alpha)           :        7.000000050874 electrons
N(Beta)            :        7.000000050874 electrons
N(Total)           :       14.000000101748 electrons
E(X)               :       -9.035102154060 Eh       
E(C)               :       -0.441302073239 Eh       
E(XC)              :       -9.476404227298 Eh       
DFET-embed. en.    :        0.000000000000 Eh       

---------------
SCF CONVERGENCE
---------------

  Last Energy change         ...   -8.6409e-10  Tolerance :   1.0000e-08
  Last MAX-Density change    ...    5.5511e-16  Tolerance :   1.0000e-07
  Last RMS-Density change    ...    2.3890e-17  Tolerance :   5.0000e-09
  Last Orbital Gradient      ...    6.6156e-07  Tolerance :   1.0000e-05
  Last Orbital Rotation      ...    8.9569e-07  Tolerance :   1.0000e-05

             **** THE GBW FILE WAS UPDATED (HCN_165.gbw) ****
             **** DENSITY HCN_165.scfp WAS UPDATED ****
             **** ENERGY FILE WAS UPDATED (HCN_165.en.tmp) ****
             **** THE GBW FILE WAS UPDATED (HCN_165.gbw) ****
             **** DENSITY HCN_165.scfp WAS UPDATED ****
----------------
ORBITAL ENERGIES
----------------

  NO   OCC          E(Eh)            E(eV) 
   0   2.0000     -14.412178      -392.1753 
   1   2.0000     -10.278788      -279.7000 
   2   2.0000      -0.951387       -25.8885 
   3   2.0000      -0.628865       -17.1123 
   4   2.0000      -0.405308       -11.0290 
   5   2.0000      -0.381445       -10.3796 
   6   2.0000      -0.380475       -10.3532 
   7   0.0000      -0.006588        -0.1793 
   8   0.0000       0.007688         0.2092 
   9   0.0000       0.068517         1.8644 
  10   0.0000       0.105770         2.8782 
  11   0.0000       0.224468         6.1081 
  12   0.0000       0.226174         6.1545 
  13   0.0000       0.278470         7.5776 
  14   0.0000       0.370265        10.0754 
  15   0.0000       0.379493        10.3265 
  16   0.0000       0.440932        11.9984 
  17   0.0000       0.455763        12.4019 
  18   0.0000       0.611477        16.6391 
  19   0.0000       0.631919        17.1954 
  20   0.0000       0.637250        17.3404 
  21   0.0000       0.704043        19.1580 
  22   0.0000       0.781219        21.2580 
  23   0.0000       0.889025        24.1916 
  24   0.0000       1.181193        32.1419 
  25   0.0000       1.185054        32.2470 
  26   0.0000       1.212350        32.9897 
  27   0.0000       1.304932        35.5090 
  28   0.0000       1.398561        38.0568 
  29   0.0000       1.405056        38.2335 
  30   0.0000       1.415962        38.5303 
  31   0.0000       1.494879        40.6777 
  32   0.0000       1.569175        42.6994 
  33   0.0000       1.802807        49.0569 
  34   0.0000       1.971050        53.6350 
  35   0.0000       2.032168        55.2981 
  36   0.0000       2.197381        59.7938 
  37   0.0000       2.340438        63.6866 
  38   0.0000       2.350146        63.9507 
  39   0.0000       2.386956        64.9524 
  40   0.0000       2.641907        71.8900 
  41   0.0000       2.642123        71.8958 
  42   0.0000       2.746947        74.7482 
  43   0.0000       2.775673        75.5299 
  44   0.0000       2.784915        75.7814 
  45   0.0000       2.904457        79.0343 
  46   0.0000       2.939631        79.9914 
  47   0.0000       2.979507        81.0765 
  48   0.0000       2.993694        81.4626 
  49   0.0000       3.230693        87.9116 
  50   0.0000       3.450824        93.9017 
  51   0.0000       3.512028        95.5671 
  52   0.0000       3.853797       104.8671 
  53   0.0000       3.959399       107.7407 
  54   0.0000       3.959628       107.7470 
  55   0.0000       4.460660       121.3807 
  56   0.0000       4.460828       121.3853 
  57   0.0000       4.478331       121.8616 
  58   0.0000       4.599640       125.1626 
  59   0.0000       4.601075       125.2016 
  60   0.0000       4.967324       135.1678 
  61   0.0000       5.067845       137.9031 
  62   0.0000       5.379275       146.3775 
  63   0.0000       5.467523       148.7789 
  64   0.0000       5.529698       150.4707 
  65   0.0000       6.041761       164.4047 
  66   0.0000      22.313593       607.1837 
  67   0.0000      32.009803       871.0310 

                    ********************************
                    * MULLIKEN POPULATION ANALYSIS *
                    ********************************

-----------------------
MULLIKEN ATOMIC CHARGES
-----------------------
   0 C :   -0.160345
   1 N :   -0.042639
   2 H :    0.202984
Sum of atomic charges:    0.0000000

--------------------------------
MULLIKEN REDUCED ORBITAL CHARGES
--------------------------------
  0 C s       :     3.242148  s :     3.242148
      pz      :     0.924802  p :     2.858119
      px      :     1.013145
      py      :     0.920172
      dz2     :     0.007312  d :     0.047345
      dxz     :     0.012338
      dyz     :     0.001604
      dx2y2   :     0.012947
      dxy     :     0.013144
      f0      :     0.001035  f :     0.012733
      f+1     :     0.002548
      f-1     :     0.000160
      f+2     :     0.002228
      f-2     :     0.000537
      f+3     :     0.002250
      f-3     :     0.003974
  1 N s       :     3.690682  s :     3.690682
      pz      :     1.019691  p :     3.303346
      px      :     1.246176
      py      :     1.037479
      dz2     :     0.004790  d :     0.046275
      dxz     :     0.015648
      dyz     :     0.001312
      dx2y2   :     0.006691
      dxy     :     0.017834
      f0      :     0.000185  f :     0.002336
      f+1     :     0.000467
      f-1     :     0.000031
      f+2     :     0.000437
      f-2     :     0.000171
      f+3     :     0.000165
      f-3     :     0.000880
  2 H s       :     0.774370  s :     0.774370
      pz      :     0.003481  p :     0.022646
      px      :     0.015771
      py      :     0.003395


                     *******************************
                     * LOEWDIN POPULATION ANALYSIS *
                     *******************************

----------------------
LOEWDIN ATOMIC CHARGES
----------------------
   0 C :   -0.169912
   1 N :    0.046914
   2 H :    0.122998

-------------------------------
LOEWDIN REDUCED ORBITAL CHARGES
-------------------------------
  0 C s       :     2.952007  s :     2.952007
      pz      :     0.913702  p :     2.947691
      px      :     1.140768
      py      :     0.893221
      dz2     :     0.030405  d :     0.218020
      dxz     :     0.054600
      dyz     :     0.003460
      dx2y2   :     0.086919
      dxy     :     0.042636
      f0      :     0.004356  f :     0.052193
      f+1     :     0.010742
      f-1     :     0.000433
      f+2     :     0.009280
      f-2     :     0.002452
      f+3     :     0.012747
      f-3     :     0.012182
  1 N s       :     3.327685  s :     3.327685
      pz      :     1.011445  p :     3.496801
      px      :     1.485437
      py      :     0.999918
      dz2     :     0.013462  d :     0.112908
      dxz     :     0.033930
      dyz     :     0.002197
      dx2y2   :     0.033216
      dxy     :     0.030103
      f0      :     0.001511  f :     0.015692
      f+1     :     0.002886
      f-1     :     0.000125
      f+2     :     0.003161
      f-2     :     0.000722
      f+3     :     0.003699
      f-3     :     0.003588
  2 H s       :     0.806218  s :     0.806218
      pz      :     0.012000  p :     0.070784
      px      :     0.047121
      py      :     0.011662


                      *****************************
                      * MAYER POPULATION ANALYSIS *
                      *****************************

  NA   - Mulliken gross atomic population
  ZA   - Total nuclear charge
  QA   - Mulliken gross atomic charge
  VA   - Mayer's total valence
  BVA  - Mayer's bonded valence
  FA   - Mayer's free valence

  ATOM       NA         ZA         QA         VA         BVA        FA
  0 C      6.1603     6.0000    -0.1603     3.9801     3.9801     0.0000
  1 N      7.0426     7.0000    -0.0426     3.0631     3.0631     0.0000
  2 H      0.7970     1.0000     0.2030     0.9589     0.9589     0.0000

  Mayer bond orders larger than 0.100000
B(  0-C ,  1-N ) :   3.0421 B(  0-C ,  2-H ) :   0.9379 

-------
TIMINGS
-------

Total SCF time: 0 days 0 hours 0 min 1 sec 

Total time                  ....       1.849 sec
Sum of individual times     ....       1.691 sec  ( 91.5%)

Fock matrix formation       ....       1.406 sec  ( 76.0%)
  Split-RI-J                ....       0.167 sec  ( 11.9% of F)
  Chain of spheres X        ....       0.684 sec  ( 48.6% of F)
  XC integration            ....       0.317 sec  ( 22.5% of F)
    Basis function eval.    ....       0.042 sec  ( 13.2% of XC)
    Density eval.           ....       0.035 sec  ( 11.0% of XC)
    XC-Functional eval.     ....       0.011 sec  (  3.5% of XC)
    XC-Potential eval.      ....       0.049 sec  ( 15.5% of XC)
Diagonalization             ....       0.029 sec  (  1.6%)
Density matrix formation    ....       0.000 sec  (  0.0%)
Population analysis         ....       0.010 sec  (  0.5%)
Initial guess               ....       0.018 sec  (  1.0%)
Orbital Transformation      ....       0.000 sec  (  0.0%)
Orbital Orthonormalization  ....       0.000 sec  (  0.0%)
DIIS solution               ....       0.024 sec  (  1.3%)
SOSCF solution              ....       0.022 sec  (  1.2%)
Grid generation             ....       0.182 sec  (  9.8%)

Maximum memory used throughout the entire SCF-calculation: 58.4 MB

-------------------------   --------------------
FINAL SINGLE POINT ENERGY       -93.342795274887
-------------------------   --------------------



           ************************************************************
           *        Program running with 5 parallel MPI-processes     *
           *              working on a common directory               *
           ************************************************************
------------------------------------------------------------------------------
                         ORCA SCF GRADIENT CALCULATION
------------------------------------------------------------------------------

 ... reading COSX grid (gridx3)
Gradient of the Kohn-Sham DFT energy:
Kohn-Sham wavefunction type      ... RKS
Hartree-Fock exchange scaling    ...    0.250
Number of operators              ...    1
Number of atoms                  ...    3
Basis set dimensions             ...   68
Integral neglect threshold       ... 2.5e-11
Integral primitive cutoff        ... 2.5e-12
SHARK Integral package           ... ON

Nuc. rep. gradient       (SHARK) ... done (  0.0 sec)
HCore & Overlap gradient (SHARK) ... done (  0.0 sec)
RI-J gradient            (SHARK) ... done (  0.0 sec)
COSX-gradient                    ... done (  0.1 sec)
Exchange-correlation gradient    ... done

------------------
CARTESIAN GRADIENT
------------------

   1   C   :   -0.031714832    0.001535889    0.022923335
   2   N   :    0.022672025   -0.001082132   -0.014278228
   3   H   :    0.009056492   -0.000444953   -0.008666556

Difference to translation invariance:
           :    0.0000136847    0.0000088040   -0.0000214478

Difference to rotation invariance:
           :   -0.0000189794   -0.0000452224    0.0000328868

Norm of the cartesian gradient     ...    0.0490923171
RMS gradient                       ...    0.0163641057
MAX gradient                       ...    0.0317148325

-------
TIMINGS
-------

Total SCF gradient time            ...        0.354 sec

One electron gradient       ....       0.003 sec  (  0.8%)
RI-J Coulomb gradient       ....       0.048 sec  ( 13.6%)
COSX gradient               ....       0.134 sec  ( 37.9%)
XC gradient                 ....       0.049 sec  ( 13.8%)

Maximum memory used throughout the entire SCFGRAD-calculation: 33.5 MB

                            ***************************************
                            *     ORCA property calculations      *
                            ***************************************

                                    ---------------------
                                    Active property flags
                                    ---------------------
   (+) Dipole Moment
   (+) Chemical Shifts
   (+) Nuclear properties (Hyperfine,Quadrupole)


------------------------------------------------------------------------------
                       ORCA ELECTRIC PROPERTIES CALCULATION
------------------------------------------------------------------------------

Dipole Moment Calculation                       ... on
Quadrupole Moment Calculation                   ... off
Polarizability Calculation                      ... off
GBWName                                         ... HCN_165.gbw
Electron density                                ... HCN_165.scfp
The origin for moment calculation is the CENTER OF MASS  = (-0.892106,  1.765566 -0.293006)

-------------
DIPOLE MOMENT
-------------
                                X             Y             Z
Electronic contribution:      0.33932      -0.01683       0.02547
Nuclear contribution   :     -1.49433       0.07400       0.14468
                        -----------------------------------------
Total Dipole Moment    :     -1.15501       0.05717       0.17015
                        -----------------------------------------
Magnitude (a.u.)       :      1.16887
Magnitude (Debye)      :      2.97104



--------------------
Rotational spectrum 
--------------------
 
Rotational constants in cm-1:   302.918086     1.491556     1.484247 
Rotational constants in MHz : 9081255.761510 44715.719484 44496.620008 

 Dipole components along the rotational axes: 
x,y,z [a.u.] :     1.165451    -0.089382     0.000002 
x,y,z [Debye]:     2.962341    -0.227191     0.000005 

 


           ************************************************************
           *        Program running with 5 parallel MPI-processes     *
           *              working on a common directory               *
           ************************************************************
------------------------------------------------------------------------------
                                ORCA EPR/NMR CALCULATION
------------------------------------------------------------------------------

GBWName                      ... HCN_165.gbw
Electron density             ... HCN_165.scfp
Spin density                 ... HCN_165.scfr
Treatment of gauge           ... GIAO (approximations 1/2el = 0,0)
Details of the CP(SCF) procedure:
       Solver   = POPLE   
       MaxIter  =    64   
       Tolerance=    1.000e-04
       COSX Grid=     1   
       Op-0     =   0-  6 =>   7- 67
Multiplicity                 ... 1
g-tensor                     ... 0
NMR chemical shifts          ... 1
NMR spin-spin couplings      ... 0
NMR spectrum                 ... 0
Number of nuclei for epr/nmr ... 3
   Nucleus:   1N 
       Hyperfine : Isotope=   14 I=   1.000 P=  38.568
       Quadrupole: Isotope=   14 I=   1.000 Q=   0.020
       Spin-Orbit: Zeff=   4.550
       Nuclear Spin-Spin: Gn=   0.000
       EPRNMR Input: 
       rho(0)=N f(grad)=N a(iso)=N a(dip)=N a(orb)=N sigma(nmr)=Y spin-spin(nmr)=all-N,DSO-N,PSO-N,FC-N,SD-N
   Nucleus:   0C 
       Hyperfine : Isotope=   13 I=   0.500 P= 134.190
       Quadrupole: Isotope=   13 I=   0.500 Q=   0.000
       Spin-Orbit: Zeff=   3.600
       Nuclear Spin-Spin: Gn=   0.000
       EPRNMR Input: 
       rho(0)=N f(grad)=N a(iso)=N a(dip)=N a(orb)=N sigma(nmr)=Y spin-spin(nmr)=all-N,DSO-N,PSO-N,FC-N,SD-N
   Nucleus:   2H 
       Hyperfine : Isotope=    1 I=   0.500 P= 533.551
       Quadrupole: Isotope=    2 I=   1.000 Q=   0.003
       Spin-Orbit: Zeff=   1.000
       Nuclear Spin-Spin: Gn=   0.000
       EPRNMR Input: 
       rho(0)=N f(grad)=N a(iso)=N a(dip)=N a(orb)=N sigma(nmr)=Y spin-spin(nmr)=all-N,DSO-N,PSO-N,FC-N,SD-N
Forming RHS of the CP-SCF equations         ... 
Calculating right hand sides for GIAO treatment        ... 
  Entering RightHandSide GIAO. ScalHFX=    0.2500 NeedHFX=1
     -> 1-electron GIAO integrals will be done analytically
     -> RIJCOSX used in SCF. Same chosen for GIAO calculation.
     Making grid for GIAO integrations   ...

GRID GIAO
---------

General Integration Accuracy     IntAcc      ... 4.388
Radial Grid Type                 RadialGrid  ... OptM3 with GC (2021)
Angular Grid (max. ang.)         AngularGrid ... 4 (Lebedev-302)
Angular grid pruning method      GridPruning ... 4 (adaptive)
Weight generation scheme         WeightScheme... Becke
Basis function cutoff            BFCut       ... 1.0000e-11
Integration weight cutoff        WCut        ... 1.0000e-14
Angular grids for H and He will be reduced by one unit
Partially contracted basis set               ... off
Rotationally invariant grid construction     ... off

Total number of grid points                  ...    15543
Total number of batches                      ...      244
Average number of points per batch           ...       63
Average number of grid points per atom       ...     5181

  One-electron GIAO integrals (SHARK)     ... done
  Calculating G(B)[P]                     ... (RI-J: SHARK-ok) (COSX-ok) (add-J+K:ok) => dG/dB done
  DFT XC-terms                            ... done
  Extracting occupied and virtual blocks  ... 
  Operator  0  NO=   7 NV=  61 
  Transforming and RHS contribution       ... done
  Adding eps_i * S(B)_ai terms            ... done
  Projecting overlap derivatives          ... done
  Building G[dS/dB_ij] (COSX)             ... done
  Transforming to MO basis                ... done
  Summing G[dS/dB_ij] into RHS contribs.  ... done

  GIAO profiling information: 
    Total GIAO time               ...       0.3 sec
       GIAO 1-electron integrals  ...       0.0 sec (  0.9%)
       GIAO G(dS/dB) terms        ...       0.1 sec ( 18.5%)
       GIAO RI-J                  ...       0.0 sec (  7.1%)
       GIAO COSX                  ...       0.1 sec ( 24.4%)
       GIAO XC-terms              ...       0.1 sec ( 30.4%)

  GIAO right hand side done


------------------------------------------------------------------------------
                           ORCA CP-SCF CALCULATION
------------------------------------------------------------------------------

Input orbitals are from        ... HCN_165.gbw
Input Perturbation             ... HCN_165.pin.tmp
Wavefunction output            ... HCN_165.pout.tmp
Perturbation mode              ... Imaginary perturbation
Solver                         ... POPLE
Max. number of iterations      ... 64
Convergence tolerance          ... 1.000e-04
Integral handling              ... Direct
DFT GridXC                     ... 1
COSX GridX                     ... 1
COSX IntAccX                   ... 3.067
COSX Algorithm                 ... Auto
Number of perturbations        ... 3
Number of operators            ... 1
Orbital ranges used for CP-SCF:
 Operator 0:  Orbitals   0...  6  to   7... 67
Variables per perturbation     ... 427
DFT calculation                         ... on
XC functional terms                     ... off
Hybrid DFT                              ... on
   Exchange mixing (SCF)                ...  0.250
   Exchange mixing (CP-SCF)             ...  0.250
   GGA exch. scaling(SCF)               ...  0.750
   GGA exch. scaling (CP-SCF)           ...  0.750
   GGA corr. scaling (SCF)              ...  1.000
   GGA corr. scaling (CP-SCF)           ...  1.000

CP-SCF GRID
-----------

General Integration Accuracy     IntAcc      ... 3.467
Radial Grid Type                 RadialGrid  ... OptM3 with GC (2021)
Angular Grid (max. ang.)         AngularGrid ... 1 (Lebedev-50)
Angular grid pruning method      GridPruning ... 4 (adaptive)
Weight generation scheme         WeightScheme... Becke
Basis function cutoff            BFCut       ... 1.0000e-11
Integration weight cutoff        WCut        ... 1.0000e-14
Angular grids for H and He will be reduced by one unit
Partially contracted basis set               ... off
Rotationally invariant grid construction     ... off

Total number of grid points                  ...     2365
Total number of batches                      ...       39
Average number of points per batch           ...       60
Average number of grid points per atom       ...      788

CP-SCF GRIDX
------------

General Integration Accuracy     IntAcc      ... 3.067
Radial Grid Type                 RadialGrid  ... OptM3 with GC (2021)
Angular Grid (max. ang.)         AngularGrid ... 1 (Lebedev-50)
Angular grid pruning method      GridPruning ... 4 (adaptive)
Weight generation scheme         WeightScheme... Becke
Basis function cutoff            BFCut       ... 1.0000e-11
Integration weight cutoff        WCut        ... 1.0000e-14
Angular grids for H and He will be reduced by one unit
Partially contracted basis set               ... on
Rotationally invariant grid construction     ... off

Total number of grid points                  ...     1053
Total number of batches                      ...       18
Average number of points per batch           ...       58
Average number of grid points per atom       ...      351

Memory available               ... 1015.8 MB
Memory needed per perturbation ...   0.2 MB
Perturbations treated per batch... 3
Number of batches              ... 1
     CP-SCF ITERATION   0:   2.9081e-01 (   0.0 sec   0/  3 done)
     CP-SCF ITERATION   1:   7.3100e-03 (   0.0 sec   0/  3 done)
     CP-SCF ITERATION   2:   8.0291e-04 (   0.0 sec   0/  3 done)
     CP-SCF ITERATION   3:   1.0480e-04 (   0.0 sec   2/  3 done)
     CP-SCF ITERATION   4:   1.1363e-05 (   0.0 sec   3/  3 done)
                    *** THE CP-SCF HAS CONVERGED ***

Forming final perturbed densities           ... done
Transforming perturbed density to AO basis  ... done

Magnetic field perturbation calculated in  0.596 sec

---------------
CHEMICAL SHIFTS
---------------

Note: using conversion factor for au to ppm alpha^2/2 =   26.625677252 
GIAO: Analytic para- and diamagnetic shielding integrals (SHARK)       ...done
 --------------
 Nucleus   1N :
 --------------

Diamagnetic contribution to the shielding tensor (ppm) : 
           337.460         -1.332        -6.579
            -1.112        315.017         0.325
            -7.843         -0.609       317.545

Paramagnetic contribution to the shielding tensor (ppm): 
           -21.658        -26.914      -125.971
           -27.147       -568.809         6.229
           -66.469          4.267      -537.555

Total shielding tensor (ppm): 
           315.801        -28.246      -132.550
           -28.259       -253.792         6.554
           -74.312          3.659      -220.009


 Diagonalized sT*s matrix:
 
 sDSO           315.718          314.951          339.353  iso=     323.341
 sPSO          -513.978         -570.140          -43.903  iso=    -376.007
        ---------------  ---------------  ---------------
 Total         -198.260         -255.190          295.450  iso=     -52.667

 --------------
 Nucleus   0C :
 --------------

Diamagnetic contribution to the shielding tensor (ppm) : 
           277.540         -0.817        -2.377
            -0.757        262.262         0.117
            -4.820         -2.326       263.276

Paramagnetic contribution to the shielding tensor (ppm): 
           -18.255        -13.326       -58.562
           -13.378       -288.122         2.896
           -85.757          6.801      -274.773

Total shielding tensor (ppm): 
           259.286        -14.143       -60.938
           -14.135        -25.860         3.014
           -90.577          4.475       -11.497


 Diagonalized sT*s matrix:
 
 sDSO           262.224          262.465          278.389  iso=     267.693
 sPSO          -288.783         -292.620            0.253  iso=    -193.717
        ---------------  ---------------  ---------------
 Total          -26.559          -30.155          278.642  iso=      73.976

 --------------
 Nucleus   2H :
 --------------

Diamagnetic contribution to the shielding tensor (ppm) : 
            39.362         -0.889         0.005
            -0.737         24.536        -0.000
            -0.416         -0.426        24.660

Paramagnetic contribution to the shielding tensor (ppm): 
            -1.043          0.206        -0.364
             0.055          0.027         0.018
            -5.048          0.697        -0.109

Total shielding tensor (ppm): 
            38.319         -0.683        -0.359
            -0.682         24.564         0.018
            -5.464          0.271        24.551


 Diagonalized sT*s matrix:
 
 sDSO            24.970           24.492           39.096  iso=      29.519
 sPSO            -0.985            0.038           -0.177  iso=      -0.375
        ---------------  ---------------  ---------------
 Total           23.985           24.530           38.919  iso=      29.144



--------------------------------
CHEMICAL SHIELDING SUMMARY (ppm)
--------------------------------


  Nucleus  Element    Isotropic     Anisotropy
  -------  -------  ------------   ------------
      1       N          -52.667        522.175 
      0       C           73.976        306.999 
      2       H           29.144         14.661 



Maximum memory used throughout the entire EPRNMR-calculation: 10.2 MB

----------------------------------------------------------------------------
                           ORCA NUMERICAL FREQUENCIES
                              (5-process run)
----------------------------------------------------------------------------

Number of atoms                ... 3
Central differences            ... used
Number of displacements        ... 18
Numerical increment            ... 5.000e-03 bohr
IR-spectrum generation         ... on
Raman-spectrum generation      ... off
Surface Crossing Hessian       ... off

The output will be reduced. Please look at the following files:
SCF program output             ... >HCN_165.lastscf
Integral program output        ... >HCN_165.lastint
Gradient program output        ... >HCN_165.lastgrad
Dipole moment program output   ... >HCN_165.lastmom
AutoCI program output          ... >HCN_165.lastautoci

	<< Calculating on displaced geometry   2 (of  18) >>
	<< Calculating on displaced geometry   3 (of  18) >>
	<< Calculating on displaced geometry   5 (of  18) >>
	<< Calculating on displaced geometry   1 (of  18) >>
	<< Calculating on displaced geometry   4 (of  18) >>
	<< Calculating on displaced geometry   7 (of  18) >>
	<< Calculating on displaced geometry   8 (of  18) >>
	<< Calculating on displaced geometry   6 (of  18) >>
	<< Calculating on displaced geometry   9 (of  18) >>
	<< Calculating on displaced geometry  10 (of  18) >>
	<< Calculating on displaced geometry  11 (of  18) >>
	<< Calculating on displaced geometry  12 (of  18) >>
	<< Calculating on displaced geometry  15 (of  18) >>
	<< Calculating on displaced geometry  14 (of  18) >>
	<< Calculating on displaced geometry  13 (of  18) >>
	<< Calculating on displaced geometry  16 (of  18) >>
	<< Calculating on displaced geometry  17 (of  18) >>
	<< Calculating on displaced geometry  18 (of  18) >>

-----------------------
VIBRATIONAL FREQUENCIES
-----------------------

Scaling factor for frequencies =  1.000000000 (already applied!)

   0:         0.00 cm**-1
   1:         0.00 cm**-1
   2:         0.00 cm**-1
   3:         0.00 cm**-1
   4:         0.00 cm**-1
   5:         0.00 cm**-1
   6:       678.70 cm**-1
   7:      2154.01 cm**-1
   8:      3542.55 cm**-1


------------
NORMAL MODES
------------

These modes are the cartesian displacements weighted by the diagonal matrix
M(i,i)=1/sqrt(m[i]) where m[i] is the mass of the displaced atom
Thus, these vectors are normalized but *not* orthogonal

                  0          1          2          3          4          5    
      0       0.000000   0.000000   0.000000   0.000000   0.000000   0.000000
      1       0.000000   0.000000   0.000000   0.000000   0.000000   0.000000
      2       0.000000   0.000000   0.000000   0.000000   0.000000   0.000000
      3       0.000000   0.000000   0.000000   0.000000   0.000000   0.000000
      4       0.000000   0.000000   0.000000   0.000000   0.000000   0.000000
      5       0.000000   0.000000   0.000000   0.000000   0.000000   0.000000
      6       0.000000   0.000000   0.000000   0.000000   0.000000   0.000000
      7       0.000000   0.000000   0.000000   0.000000   0.000000   0.000000
      8       0.000000   0.000000   0.000000   0.000000   0.000000   0.000000
                  6          7          8    
      0      -0.025297   0.428079   0.114811
      1       0.001316  -0.021165  -0.005686
      2      -0.154084  -0.123241  -0.010237
      3       0.022184  -0.423061  -0.027088
      4      -0.001124   0.020922   0.001339
      5       0.061202   0.109628   0.007998
      6      -0.006842   0.777933  -0.991640
      7      -0.000060  -0.038531   0.049140
      8       0.985561  -0.054867   0.010847


-----------
IR SPECTRUM
-----------

 Mode   freq       eps      Int      T**2         TX        TY        TZ
       cm**-1   L/(mol*cm) km/mol    a.u.
----------------------------------------------------------------------------
  6:    678.70   0.011876   60.02  0.005461  (-0.020049  0.000966  0.071117)
  7:   2154.01   0.000325    1.64  0.000047  ( 0.005420 -0.000266  0.004196)
  8:   3542.55   0.013915   70.32  0.001226  (-0.034965  0.001743  0.000483)

* The epsilon (eps) is given for a Dirac delta lineshape.
** The dipole moment derivative (T) already includes vibrational overlap.

The first frequency considered to be a vibration is 6
The total number of vibrations considered is 3


--------------------------
THERMOCHEMISTRY AT 298.15K
--------------------------

Temperature         ... 298.15 K
Pressure            ... 1.00 atm
Total Mass          ... 27.03 AMU

Throughout the following assumptions are being made:
  (1) The electronic state is orbitally nondegenerate
  (2) There are no thermally accessible electronically excited states
  (3) Hindered rotations indicated by low frequency modes are not
      treated as such but are treated as vibrations and this may
      cause some error
  (4) All equations used are the standard statistical mechanics
      equations for an ideal gas
  (5) All vibrations are strictly harmonic

freq.     678.70  E(vib)   ...       0.08 
freq.    2154.01  E(vib)   ...       0.00 
freq.    3542.55  E(vib)   ...       0.00 

------------
INNER ENERGY
------------

The inner energy is: U= E(el) + E(ZPE) + E(vib) + E(rot) + E(trans)
    E(el)   - is the total energy from the electronic structure calculation
              = E(kin-el) + E(nuc-el) + E(el-el) + E(nuc-nuc)
    E(ZPE)  - the the zero temperature vibrational energy from the frequency calculation
    E(vib)  - the the finite temperature correction to E(ZPE) due to population
              of excited vibrational states
    E(rot)  - is the rotational thermal energy
    E(trans)- is the translational thermal energy

Summary of contributions to the inner energy U:
Electronic energy                ...    -93.34279527 Eh
Zero point energy                ...      0.01452392 Eh       9.11 kcal/mol
Thermal vibrational correction   ...      0.00012183 Eh       0.08 kcal/mol
Thermal rotational correction    ...      0.00141627 Eh       0.89 kcal/mol
Thermal translational correction ...      0.00141627 Eh       0.89 kcal/mol
-----------------------------------------------------------------------
Total thermal energy                    -93.32531698 Eh


Summary of corrections to the electronic energy:
(perhaps to be used in another calculation)
Total thermal correction                  0.00295437 Eh       1.85 kcal/mol
Non-thermal (ZPE) correction              0.01452392 Eh       9.11 kcal/mol
-----------------------------------------------------------------------
Total correction                          0.01747829 Eh      10.97 kcal/mol


--------
ENTHALPY
--------

The enthalpy is H = U + kB*T
                kB is Boltzmann's constant
Total free energy                 ...    -93.32531698 Eh 
Thermal Enthalpy correction       ...      0.00094421 Eh       0.59 kcal/mol
-----------------------------------------------------------------------
Total Enthalpy                    ...    -93.32437277 Eh


Note: Rotational entropy computed according to Herzberg 
Infrared and Raman Spectra, Chapter V,1, Van Nostrand Reinhold, 1945 
Point Group:  Cs, Symmetry Number:   1  
Rotational constants in cm-1:   302.918086     1.491556     1.484247 

Vibrational entropy computed according to the QRRHO of S. Grimme
Chem.Eur.J. 2012 18 9955


-------
ENTROPY
-------

The entropy contributions are T*S = T*(S(el)+S(vib)+S(rot)+S(trans))
     S(el)   - electronic entropy
     S(vib)  - vibrational entropy
     S(rot)  - rotational entropy
     S(trans)- translational entropy
The entropies will be listed as multiplied by the temperature to get
units of energy

Electronic entropy                ...      0.00000000 Eh      0.00 kcal/mol
Vibrational entropy               ...      0.00015839 Eh      0.10 kcal/mol
Rotational entropy                ...      0.00643836 Eh      4.04 kcal/mol
Translational entropy             ...      0.01701823 Eh     10.68 kcal/mol
-----------------------------------------------------------------------
Final entropy term                ...      0.02361498 Eh     14.82 kcal/mol

In case the symmetry of your molecule has not been determined correctly
or in case you have a reason to use a different symmetry number we print 
out the resulting rotational entropy values for sn=1,12 :
 --------------------------------------------------------
|  sn= 1 | S(rot)=       0.00643836 Eh      4.04 kcal/mol|
|  sn= 2 | S(rot)=       0.00578390 Eh      3.63 kcal/mol|
|  sn= 3 | S(rot)=       0.00540107 Eh      3.39 kcal/mol|
|  sn= 4 | S(rot)=       0.00512944 Eh      3.22 kcal/mol|
|  sn= 5 | S(rot)=       0.00491876 Eh      3.09 kcal/mol|
|  sn= 6 | S(rot)=       0.00474661 Eh      2.98 kcal/mol|
|  sn= 7 | S(rot)=       0.00460106 Eh      2.89 kcal/mol|
|  sn= 8 | S(rot)=       0.00447499 Eh      2.81 kcal/mol|
|  sn= 9 | S(rot)=       0.00436378 Eh      2.74 kcal/mol|
|  sn=10 | S(rot)=       0.00426430 Eh      2.68 kcal/mol|
|  sn=11 | S(rot)=       0.00417431 Eh      2.62 kcal/mol|
|  sn=12 | S(rot)=       0.00409215 Eh      2.57 kcal/mol|
 --------------------------------------------------------


-------------------
GIBBS FREE ENERGY
-------------------

The Gibbs free energy is G = H - T*S

Total enthalpy                    ...    -93.32437277 Eh 
Total entropy correction          ...     -0.02361498 Eh    -14.82 kcal/mol
-----------------------------------------------------------------------
Final Gibbs free energy         ...    -93.34798775 Eh

For completeness - the Gibbs free energy minus the electronic energy
G-E(el)                           ...     -0.00519247 Eh     -3.26 kcal/mol



Timings for individual modules:

Sum of individual times         ...       72.971 sec (=   1.216 min)
GTO integral calculation        ...        4.595 sec (=   0.077 min)   6.3 %
SCF iterations                  ...        7.247 sec (=   0.121 min)   9.9 %
EPR/NMR calculation             ...        2.300 sec (=   0.038 min)   3.2 %
SCF Gradient evaluation         ...        3.945 sec (=   0.066 min)   5.4 %
Numerical frequency calculation ...       54.884 sec (=   0.915 min)  75.2 %
                             ****ORCA TERMINATED NORMALLY****
TOTAL RUN TIME: 0 days 0 hours 1 minutes 6 seconds 328 msec
