
                                 *****************
                                 * O   R   C   A *
                                 *****************

                                            #,                                       
                                            ###                                      
                                            ####                                     
                                            #####                                    
                                            ######                                   
                                           ########,                                 
                                     ,,################,,,,,                         
                               ,,#################################,,                 
                          ,,##########################################,,             
                       ,#########################################, ''#####,          
                    ,#############################################,,   '####,        
                  ,##################################################,,,,####,       
                ,###########''''           ''''###############################       
              ,#####''   ,,,,##########,,,,          '''####'''          '####       
            ,##' ,,,,###########################,,,                        '##       
           ' ,,###''''                  '''############,,,                           
         ,,##''                                '''############,,,,        ,,,,,,###''
      ,#''                                            '''#######################'''  
     '                                                          ''''####''''         
             ,#######,   #######,   ,#######,      ##                                
            ,#'     '#,  ##    ##  ,#'     '#,    #''#        ######   ,####,        
            ##       ##  ##   ,#'  ##            #'  '#       #        #'  '#        
            ##       ##  #######   ##           ,######,      #####,   #    #        
            '#,     ,#'  ##    ##  '#,     ,#' ,#      #,         ##   #,  ,#        
             '#######'   ##     ##  '#######'  #'      '#     #####' # '####'        



                  #######################################################
                  #                        -***-                        #
                  #          Department of theory and spectroscopy      #
                  #    Directorship and core code : Frank Neese         #
                  #        Max Planck Institute fuer Kohlenforschung    #
                  #                Kaiser Wilhelm Platz 1               #
                  #                 D-45470 Muelheim/Ruhr               #
                  #                      Germany                        #
                  #                                                     #
                  #                  All rights reserved                #
                  #                        -***-                        #
                  #######################################################


                         Program Version 5.0.3 -  RELEASE  -


 With contributions from (in alphabetic order):
   Daniel Aravena         : Magnetic Suceptibility
   Michael Atanasov       : Ab Initio Ligand Field Theory (pilot matlab implementation)
   Alexander A. Auer      : GIAO ZORA, VPT2 properties, NMR spectrum
   Ute Becker             : Parallelization
   Giovanni Bistoni       : ED, misc. LED, open-shell LED, HFLD
   Martin Brehm           : Molecular dynamics
   Dmytro Bykov           : SCF Hessian
   Vijay G. Chilkuri      : MRCI spin determinant printing, contributions to CSF-ICE
   Dipayan Datta          : RHF DLPNO-CCSD density
   Achintya Kumar Dutta   : EOM-CC, STEOM-CC
   Dmitry Ganyushin       : Spin-Orbit,Spin-Spin,Magnetic field MRCI
   Miquel Garcia          : C-PCM and meta-GGA Hessian, CC/C-PCM, Gaussian charge scheme
   Yang Guo               : DLPNO-NEVPT2, F12-NEVPT2, CIM, IAO-localization
   Andreas Hansen         : Spin unrestricted coupled pair/coupled cluster methods
   Benjamin Helmich-Paris : MC-RPA, TRAH-SCF, COSX integrals
   Lee Huntington         : MR-EOM, pCC
   Robert Izsak           : Overlap fitted RIJCOSX, COSX-SCS-MP3, EOM
   Marcus Kettner         : VPT2
   Christian Kollmar      : KDIIS, OOCD, Brueckner-CCSD(T), CCSD density, CASPT2, CASPT2-K
   Simone Kossmann        : Meta GGA functionals, TD-DFT gradient, OOMP2, MP2 Hessian
   Martin Krupicka        : Initial AUTO-CI
   Lucas Lang             : DCDCAS
   Marvin Lechner         : AUTO-CI (C++ implementation), FIC-MRCC
   Dagmar Lenk            : GEPOL surface, SMD
   Dimitrios Liakos       : Extrapolation schemes; Compound Job, initial MDCI parallelization
   Dimitrios Manganas     : Further ROCIS development; embedding schemes
   Dimitrios Pantazis     : SARC Basis sets
   Anastasios Papadopoulos: AUTO-CI, single reference methods and gradients
   Taras Petrenko         : DFT Hessian,TD-DFT gradient, ASA, ECA, R-Raman, ABS, FL, XAS/XES, NRVS
   Peter Pinski           : DLPNO-MP2, DLPNO-MP2 Gradient
   Christoph Reimann      : Effective Core Potentials
   Marius Retegan         : Local ZFS, SOC
   Christoph Riplinger    : Optimizer, TS searches, QM/MM, DLPNO-CCSD(T), (RO)-DLPNO pert. Triples
   Tobias Risthaus        : Range-separated hybrids, TD-DFT gradient, RPA, STAB
   Michael Roemelt        : Original ROCIS implementation
   Masaaki Saitow         : Open-shell DLPNO-CCSD energy and density
   Barbara Sandhoefer     : DKH picture change effects
   Avijit Sen             : IP-ROCIS
   Kantharuban Sivalingam : CASSCF convergence, NEVPT2, FIC-MRCI
   Bernardo de Souza      : ESD, SOC TD-DFT
   Georgi Stoychev        : AutoAux, RI-MP2 NMR, DLPNO-MP2 response
   Willem Van den Heuvel  : Paramagnetic NMR
   Boris Wezisla          : Elementary symmetry handling
   Frank Wennmohs         : Technical directorship


 We gratefully acknowledge several colleagues who have allowed us to
 interface, adapt or use parts of their codes:
   Stefan Grimme, W. Hujo, H. Kruse, P. Pracht,  : VdW corrections, initial TS optimization,
                  C. Bannwarth, S. Ehlert          DFT functionals, gCP, sTDA/sTD-DF
   Ed Valeev, F. Pavosevic, A. Kumar             : LibInt (2-el integral package), F12 methods
   Garnet Chan, S. Sharma, J. Yang, R. Olivares  : DMRG
   Ulf Ekstrom                                   : XCFun DFT Library
   Mihaly Kallay                                 : mrcc  (arbitrary order and MRCC methods)
   Jiri Pittner, Ondrej Demel                    : Mk-CCSD
   Frank Weinhold                                : gennbo (NPA and NBO analysis)
   Christopher J. Cramer and Donald G. Truhlar   : smd solvation model
   Lars Goerigk                                  : TD-DFT with DH, B97 family of functionals
   V. Asgeirsson, H. Jonsson                     : NEB implementation
   FAccTs GmbH                                   : IRC, NEB, NEB-TS, DLPNO-Multilevel, CI-OPT
                                                   MM, QMMM, 2- and 3-layer-ONIOM, Crystal-QMMM,
                                                   LR-CPCM, SF, NACMEs, symmetry and pop. for TD-DFT,
                                                   nearIR, NL-DFT gradient (VV10), updates on ESD,
                                                   ML-optimized integration grids
   S Lehtola, MJT Oliveira, MAL Marques          : LibXC Library
   Liviu Ungur et al                             : ANISO software


 Your calculation uses the libint2 library for the computation of 2-el integrals
 For citations please refer to: http://libint.valeyev.net

 Your ORCA version has been built with support for libXC version: 5.1.0
 For citations please refer to: https://tddft.org/programs/libxc/

 This ORCA versions uses:
   CBLAS   interface :  Fast vector & matrix operations
   LAPACKE interface :  Fast linear algebra routines
   Shared memory     :  Shared parallel matrices


SCAN-COORDS
================================================================================

----- Orbital basis set information -----
Your calculation utilizes the basis: def2-TZVP
   F. Weigend and R. Ahlrichs, Phys. Chem. Chem. Phys. 7, 3297 (2005).

----- AuxJ basis set information -----
Your calculation utilizes the auxiliary basis: def2/J
   F. Weigend, Phys. Chem. Chem. Phys. 8, 1057 (2006).

================================================================================
                                        WARNINGS
                       Please study these warnings very carefully!
================================================================================

WARNING: Gradients needed for Numerical Frequencies
  ===> : Setting RunTyp to EnGrad

WARNING: The environment variable RSH_COMMAND is not set!
  ===> : All Displacements for the Numerical Hessian or Gradient calculation
         will be started on localhost

INFO   : the flag for use of the SHARK integral package has been found!

================================================================================
                                       INPUT FILE
================================================================================
NAME = HCN_45.inp
|  1> ! PAL5 PBE0 NumFreq
|  2> %method
|  3>         method DFT
|  4>         runtyp Energy
|  5> end
|  6> %basis
|  7>         basis "def2-TZVP"
|  8> end
|  9> %coords
| 10>         CTyp xyz
| 11>         Charge 0
| 12>         Mult 1
| 13>         Units Angs
| 14>         coords
| 15> 	#45		
| 16> 	C     -1.011290    0.960957    0.000001
| 17> 	N     -1.825747    1.001235   -0.820998
| 18> 	H     -2.068270    1.013340    0.000003
| 19>         end
| 20> end
| 21> %eprnmr
| 22>         NMRShielding 1
| 23>         Nuclei = all N {shift}
| 24>         Nuclei = all C {shift}
| 25>         Nuclei = all H {shift}
| 26> endd                         ****END OF INPUT****
================================================================================

                     *******************************
                     * Energy+Gradient Calculation *
                     *******************************

---------------------------------
CARTESIAN COORDINATES (ANGSTROEM)
---------------------------------
  C     -1.011290    0.960957    0.000001
  N     -1.825747    1.001235   -0.820998
  H     -2.068270    1.013340    0.000003

----------------------------
CARTESIAN COORDINATES (A.U.)
----------------------------
  NO LB      ZA    FRAG     MASS         X           Y           Z
   0 C     6.0000    0    12.011   -1.911061    1.815946    0.000002
   1 N     7.0000    0    14.007   -3.450162    1.892060   -1.551461
   2 H     1.0000    0     1.008   -3.908464    1.914935    0.000006

--------------------------------
INTERNAL COORDINATES (ANGSTROEM)
--------------------------------
 C      0   0   0     0.000000000000     0.00000000     0.00000000
 N      1   0   0     1.157152487849     0.00000000     0.00000000
 H      2   1   0     0.856158033633    61.28227107     0.00000000

---------------------------
INTERNAL COORDINATES (A.U.)
---------------------------
 C      0   0   0     0.000000000000     0.00000000     0.00000000
 N      1   0   0     2.186701297219     0.00000000     0.00000000
 H      2   1   0     1.617904210924    61.28227107     0.00000000

---------------------
BASIS SET INFORMATION
---------------------
There are 3 groups of distinct atoms

 Group   1 Type C   : 11s6p2d1f contracted to 5s3p2d1f pattern {62111/411/11/1}
 Group   2 Type N   : 11s6p2d1f contracted to 5s3p2d1f pattern {62111/411/11/1}
 Group   3 Type H   : 5s1p contracted to 3s1p pattern {311/1}

Atom   0C    basis set group =>   1
Atom   1N    basis set group =>   2
Atom   2H    basis set group =>   3
---------------------------------
AUXILIARY/J BASIS SET INFORMATION
---------------------------------
There are 3 groups of distinct atoms

 Group   1 Type C   : 12s5p4d2f1g contracted to 6s4p3d1f1g pattern {711111/2111/211/2/1}
 Group   2 Type N   : 12s5p4d2f1g contracted to 6s4p3d1f1g pattern {711111/2111/211/2/1}
 Group   3 Type H   : 5s2p1d contracted to 3s1p1d pattern {311/2/1}

Atom   0C    basis set group =>   1
Atom   1N    basis set group =>   2
Atom   2H    basis set group =>   3


           ************************************************************
           *        Program running with 5 parallel MPI-processes     *
           *              working on a common directory               *
           ************************************************************
------------------------------------------------------------------------------
                           ORCA GTO INTEGRAL CALCULATION
                           -- RI-GTO INTEGRALS CHOSEN --
------------------------------------------------------------------------------
------------------------------------------------------------------------------
                   ___                                                        
                  /   \      - P O W E R E D   B Y -                         
                 /     \                                                     
                 |  |  |   _    _      __       _____    __    __             
                 |  |  |  | |  | |    /  \     |  _  \  |  |  /  |          
                  \  \/   | |  | |   /    \    | | | |  |  | /  /          
                 / \  \   | |__| |  /  /\  \   | |_| |  |  |/  /          
                |  |  |   |  __  | /  /__\  \  |    /   |      \           
                |  |  |   | |  | | |   __   |  |    \   |  |\   \          
                \     /   | |  | | |  |  |  |  | |\  \  |  | \   \       
                 \___/    |_|  |_| |__|  |__|  |_| \__\ |__|  \__/        
                                                                              
                      - O R C A' S   B I G   F R I E N D -                    
                                      &                                       
                       - I N T E G R A L  F E E D E R -                       
                                                                              
 v1 FN, 2020, v2 2021                                                         
------------------------------------------------------------------------------


Reading SHARK input file HCN_45.SHARKINP.tmp ... ok
----------------------
SHARK INTEGRAL PACKAGE
----------------------

Number of atoms                             ...      3
Number of basis functions                   ...     68
Number of shells                            ...     26
Maximum angular momentum                    ...      3
Integral batch strategy                     ... SHARK/LIBINT Hybrid
RI-J (if used) integral strategy            ... SPLIT-RIJ (Revised 2003 algorithm where possible)
Printlevel                                  ...      1
Contraction scheme used                     ... SEGMENTED contraction
Coulomb Range Separation                    ... NOT USED
Exchange Range Separation                   ... NOT USED
Finite Nucleus Model                        ... NOT USED
Auxiliary Coulomb fitting basis             ... AVAILABLE
   # of basis functions in Aux-J            ...    109
   # of shells in Aux-J                     ...     35
   Maximum angular momentum in Aux-J        ...      4
Auxiliary J/K fitting basis                 ... NOT available
Auxiliary Correlation fitting basis         ... NOT available
Auxiliary 'external' fitting basis          ... NOT available
Integral threshold                          ...     2.500000e-11
Primitive cut-off                           ...     2.500000e-12
Primitive pair pre-selection threshold      ...     2.500000e-12

Calculating pre-screening integrals         ... done (  0.0 sec) Dimension = 26
Organizing shell pair data                  ... done (  0.0 sec)
Shell pair information
Total number of shell pairs                 ...       351
Shell pairs after pre-screening             ...       350
Total number of primitive shell pairs       ...      1128
Primitive shell pairs kept                  ...      1045
          la=0 lb=0:     90 shell pairs
          la=1 lb=0:     91 shell pairs
          la=1 lb=1:     28 shell pairs
          la=2 lb=0:     52 shell pairs
          la=2 lb=1:     28 shell pairs
          la=2 lb=2:     10 shell pairs
          la=3 lb=0:     26 shell pairs
          la=3 lb=1:     14 shell pairs
          la=3 lb=2:      8 shell pairs
          la=3 lb=3:      3 shell pairs

Calculating one electron integrals          ... done (  0.0 sec)
Calculating RI/J V-Matrix + Cholesky decomp.... done (  0.0 sec)
Calculating Nuclear repulsion               ... done (  0.0 sec) ENN=     26.533816636572 Eh

SHARK setup successfully completed in   0.1 seconds

Maximum memory used throughout the entire GTOINT-calculation: 14.0 MB


           ************************************************************
           *        Program running with 5 parallel MPI-processes     *
           *              working on a common directory               *
           ************************************************************
-------------------------------------------------------------------------------
                                 ORCA SCF
-------------------------------------------------------------------------------

------------
SCF SETTINGS
------------
Hamiltonian:
 Density Functional     Method          .... DFT(GTOs)
 Exchange Functional    Exchange        .... PBE
   PBE kappa parameter   XKappa         ....  0.804000
   PBE mue parameter    XMuePBE         ....  0.219520
 Correlation Functional Correlation     .... PBE
   PBE beta parameter  CBetaPBE         ....  0.066725
 LDA part of GGA corr.  LDAOpt          .... PW91-LDA
 Gradients option       PostSCFGGA      .... off
 Hybrid DFT is turned on
   Fraction HF Exchange ScalHFX         ....  0.250000
   Scaling of DF-GGA-X  ScalDFX         ....  0.750000
   Scaling of DF-GGA-C  ScalDFC         ....  1.000000
   Scaling of DF-LDA-C  ScalLDAC        ....  1.000000
   Perturbative correction              ....  0.000000
   Density functional embedding theory  .... OFF
   NL short-range parameter             ....  6.900000
 RI-approximation to the Coulomb term is turned on
   Number of AuxJ basis functions       .... 109
   RIJ-COSX (HFX calculated with COS-X)).... on


General Settings:
 Integral files         IntName         .... HCN_45
 Hartree-Fock type      HFTyp           .... RHF
 Total Charge           Charge          ....    0
 Multiplicity           Mult            ....    1
 Number of Electrons    NEL             ....   14
 Basis Dimension        Dim             ....   68
 Nuclear Repulsion      ENuc            ....     26.5338166366 Eh

Convergence Acceleration:
 DIIS                   CNVDIIS         .... on
   Start iteration      DIISMaxIt       ....    12
   Startup error        DIISStart       ....  0.200000
   # of expansion vecs  DIISMaxEq       ....     5
   Bias factor          DIISBfac        ....   1.050
   Max. coefficient     DIISMaxC        ....  10.000
 Trust-Rad. Augm. Hess. CNVTRAH         .... auto
   Auto Start mean grad. ratio tolernc. ....  1.125000
   Auto Start start iteration           ....    20
   Auto Start num. interpolation iter.  ....    10
   Max. Number of Micro iterations      ....    16
   Max. Number of Macro iterations      .... Maxiter - #DIIS iter
   Number of Davidson start vectors     ....     2
   Converg. threshold I  (grad. norm)   ....   1.000e-05
   Converg. threshold II (energy diff.) ....   1.000e-08
   Grad. Scal. Fac. for Micro threshold ....   0.100
   Minimum threshold for Micro iter.    ....   0.010
   NR start threshold (gradient norm)   ....   0.001
   Initial trust radius                 ....   0.400
   Minimum AH scaling param. (alpha)    ....   1.000
   Maximum AH scaling param. (alpha)    .... 1000.000
   Orbital update algorithm             .... Taylor
   White noise on init. David. guess    .... on
   Maximum white noise                  ....   0.010
   Quad. conv. algorithm                .... NR
 SOSCF                  CNVSOSCF        .... on
   Start iteration      SOSCFMaxIt      ....   150
   Startup grad/error   SOSCFStart      ....  0.003300
 Level Shifting         CNVShift        .... on
   Level shift para.    LevelShift      ....    0.2500
   Turn off err/grad.   ShiftErr        ....    0.0010
 Zerner damping         CNVZerner       .... off
 Static damping         CNVDamp         .... on
   Fraction old density DampFac         ....    0.7000
   Max. Damping (<1)    DampMax         ....    0.9800
   Min. Damping (>=0)   DampMin         ....    0.0000
   Turn off err/grad.   DampErr         ....    0.1000
 Fernandez-Rico         CNVRico         .... off

SCF Procedure:
 Maximum # iterations   MaxIter         ....   125
 SCF integral mode      SCFMode         .... Direct
   Integral package                     .... SHARK and LIBINT hybrid scheme
 Reset frequency        DirectResetFreq ....    20
 Integral Threshold     Thresh          ....  2.500e-11 Eh
 Primitive CutOff       TCut            ....  2.500e-12 Eh

Convergence Tolerance:
 Convergence Check Mode ConvCheckMode   .... Total+1el-Energy
 Convergence forced     ConvForced      .... 0
 Energy Change          TolE            ....  1.000e-08 Eh
 1-El. energy change                    ....  1.000e-05 Eh
 Orbital Gradient       TolG            ....  1.000e-05
 Orbital Rotation angle TolX            ....  1.000e-05
 DIIS Error             TolErr          ....  5.000e-07


Diagonalization of the overlap matrix:
Smallest eigenvalue                        ... 6.438e-04
Time for diagonalization                   ...    0.001 sec
Threshold for overlap eigenvalues          ... 1.000e-08
Number of eigenvalues below threshold      ... 0
Time for construction of square roots      ...    0.005 sec
Total time needed                          ...    0.007 sec

Time for model grid setup =    0.014 sec

------------------------------
INITIAL GUESS: MODEL POTENTIAL
------------------------------
Loading Hartree-Fock densities                     ... done
Calculating cut-offs                               ... done
Initializing the effective Hamiltonian             ... done
Setting up the integral package (SHARK)            ... done
Starting the Coulomb interaction                   ... done (   0.0 sec)
Reading the grid                                   ... done
Mapping shells                                     ... done
Starting the XC term evaluation                    ... done (   0.0 sec)
  promolecular density results
     # of electrons  =     13.999455526
     EX              =    -11.937368898
     EC              =     -0.444074456
     EX+EC           =    -12.381443354
Transforming the Hamiltonian                       ... done (   0.0 sec)
Diagonalizing the Hamiltonian                      ... done (   0.0 sec)
Back transforming the eigenvectors                 ... done (   0.0 sec)
Now organizing SCF variables                       ... done
                      ------------------
                      INITIAL GUESS DONE (   0.0 sec)
                      ------------------
-------------------
DFT GRID GENERATION
-------------------

General Integration Accuracy     IntAcc      ... 4.388
Radial Grid Type                 RadialGrid  ... OptM3 with GC (2021)
Angular Grid (max. ang.)         AngularGrid ... 4 (Lebedev-302)
Angular grid pruning method      GridPruning ... 4 (adaptive)
Weight generation scheme         WeightScheme... Becke
Basis function cutoff            BFCut       ... 1.0000e-11
Integration weight cutoff        WCut        ... 1.0000e-14
Angular grids for H and He will be reduced by one unit
Partially contracted basis set               ... off
Rotationally invariant grid construction     ... off

Total number of grid points                  ...    15543
Total number of batches                      ...      244
Average number of points per batch           ...       63
Average number of grid points per atom       ...     5181
Time for grid setup =    0.068 sec

--------------------
COSX GRID GENERATION
--------------------

GRIDX 1
-------
General Integration Accuracy     IntAcc      ... 3.816
Radial Grid Type                 RadialGrid  ... OptM3 with GC (2021)
Angular Grid (max. ang.)         AngularGrid ... 1 (Lebedev-50)
Angular grid pruning method      GridPruning ... 4 (adaptive)
Weight generation scheme         WeightScheme... Becke
Basis function cutoff            BFCut       ... 1.0000e-11
Integration weight cutoff        WCut        ... 1.0000e-14
Angular grids for H and He will be reduced by one unit
Partially contracted basis set               ... on
Rotationally invariant grid construction     ... off

Total number of grid points                  ...     1968
Total number of batches                      ...       33
Average number of points per batch           ...       59
Average number of grid points per atom       ...      656
UseSFitting                                  ... on

GRIDX 2
-------
General Integration Accuracy     IntAcc      ... 4.020
Radial Grid Type                 RadialGrid  ... OptM3 with GC (2021)
Angular Grid (max. ang.)         AngularGrid ... 2 (Lebedev-110)
Angular grid pruning method      GridPruning ... 4 (adaptive)
Weight generation scheme         WeightScheme... Becke
Basis function cutoff            BFCut       ... 1.0000e-11
Integration weight cutoff        WCut        ... 1.0000e-14
Angular grids for H and He will be reduced by one unit
Partially contracted basis set               ... on
Rotationally invariant grid construction     ... off

Total number of grid points                  ...     4571
Total number of batches                      ...       73
Average number of points per batch           ...       62
Average number of grid points per atom       ...     1524
UseSFitting                                  ... on

GRIDX 3
-------
General Integration Accuracy     IntAcc      ... 4.338
Radial Grid Type                 RadialGrid  ... OptM3 with GC (2021)
Angular Grid (max. ang.)         AngularGrid ... 3 (Lebedev-194)
Angular grid pruning method      GridPruning ... 4 (adaptive)
Weight generation scheme         WeightScheme... Becke
Basis function cutoff            BFCut       ... 1.0000e-11
Integration weight cutoff        WCut        ... 1.0000e-14
Angular grids for H and He will be reduced by one unit
Partially contracted basis set               ... on
Rotationally invariant grid construction     ... off

Total number of grid points                  ...    10198
Total number of batches                      ...      160
Average number of points per batch           ...       63
Average number of grid points per atom       ...     3399
UseSFitting                                  ... on

Time for X-Grid setup             =    0.081 sec

--------------
SCF ITERATIONS
--------------
ITER       Energy         Delta-E        Max-DP      RMS-DP      [F,P]     Damp
               ***  Starting incremental Fock matrix formation  ***
  0    -93.1255541031   0.000000000000 0.04183531  0.00177024  0.2503795 0.7000
  1    -93.1574250526  -0.031870949496 0.02552874  0.00112713  0.1086629 0.7000
                               ***Turning on DIIS***
  2    -93.1689225748  -0.011497522159 0.04566345  0.00192104  0.0380249 0.0000
  3    -93.1894109641  -0.020488389368 0.01810713  0.00082798  0.0554170 0.0000
  4    -93.1924895809  -0.003078616802 0.00765746  0.00033839  0.0161089 0.0000
                      *** Initiating the SOSCF procedure ***
                           *** Shutting down DIIS ***
                      *** Re-Reading the Fockian *** 
                      *** Removing any level shift *** 
ITER      Energy       Delta-E        Grad      Rot      Max-DP    RMS-DP
  5    -93.19288879  -0.0003992134  0.000536  0.000536  0.002117  0.000096
               *** Restarting incremental Fock matrix formation ***
  6    -93.19288680   0.0000019939  0.000250  0.000541  0.000866  0.000047
  7    -93.19288626   0.0000005373  0.000491  0.000386  0.000251  0.000013
  8    -93.19288733  -0.0000010683  0.000018  0.000011  0.000043  0.000002
  9    -93.19288733  -0.0000000024  0.000006  0.000006  0.000008  0.000000
                  ***Gradient check signals convergence***
              ***Rediagonalizing the Fockian in SOSCF/NRSCF***

               *****************************************************
               *                     SUCCESS                       *
               *           SCF CONVERGED AFTER  10 CYCLES          *
               *****************************************************

Old exchange energy                            =     -3.046633062 Eh
New exchange energy                            =     -3.046630995 Eh
Exchange energy change after final integration =      0.000002067 Eh
Total energy after final integration           =    -93.192885267 Eh
Final COS-X integration done in                =     0.113 sec

----------------
TOTAL SCF ENERGY
----------------

Total Energy       :          -93.19288527 Eh           -2535.90733 eV

Components:
Nuclear Repulsion  :           26.53381664 Eh             722.02186 eV
Electronic Energy  :         -119.72670190 Eh           -3257.92919 eV
One Electron Energy:         -177.01810408 Eh           -4816.90750 eV
Two Electron Energy:           57.29140217 Eh            1558.97831 eV
Max COSX asymmetry :            0.00000069 Eh               0.00002 eV

Virial components:
Potential Energy   :         -186.82018784 Eh           -5083.63576 eV
Kinetic Energy     :           93.62730257 Eh            2547.72843 eV
Virial Ratio       :            1.99536014


DFT components:
N(Alpha)           :        7.000000352799 electrons
N(Beta)            :        7.000000352799 electrons
N(Total)           :       14.000000705597 electrons
E(X)               :       -9.123553887959 Eh       
E(C)               :       -0.449562874031 Eh       
E(XC)              :       -9.573116761990 Eh       
DFET-embed. en.    :        0.000000000000 Eh       

---------------
SCF CONVERGENCE
---------------

  Last Energy change         ...   -4.6808e-10  Tolerance :   1.0000e-08
  Last MAX-Density change    ...    5.5511e-16  Tolerance :   1.0000e-07
  Last RMS-Density change    ...    1.7607e-17  Tolerance :   5.0000e-09
  Last Orbital Gradient      ...    7.5911e-07  Tolerance :   1.0000e-05
  Last Orbital Rotation      ...    1.2660e-06  Tolerance :   1.0000e-05

             **** THE GBW FILE WAS UPDATED (HCN_45.gbw) ****
             **** DENSITY HCN_45.scfp WAS UPDATED ****
             **** ENERGY FILE WAS UPDATED (HCN_45.en.tmp) ****
             **** THE GBW FILE WAS UPDATED (HCN_45.gbw) ****
             **** DENSITY HCN_45.scfp WAS UPDATED ****
----------------
ORBITAL ENERGIES
----------------

  NO   OCC          E(Eh)            E(eV) 
   0   2.0000     -14.439257      -392.9122 
   1   2.0000     -10.312721      -280.6234 
   2   2.0000      -1.161760       -31.6131 
   3   2.0000      -0.574318       -15.6280 
   4   2.0000      -0.500656       -13.6235 
   5   2.0000      -0.441432       -12.0120 
   6   2.0000      -0.366251        -9.9662 
   7   0.0000      -0.029574        -0.8047 
   8   0.0000       0.003854         0.1049 
   9   0.0000       0.090424         2.4606 
  10   0.0000       0.174764         4.7556 
  11   0.0000       0.201290         5.4774 
  12   0.0000       0.221315         6.0223 
  13   0.0000       0.258166         7.0250 
  14   0.0000       0.299636         8.1535 
  15   0.0000       0.372164        10.1271 
  16   0.0000       0.413904        11.2629 
  17   0.0000       0.517055        14.0698 
  18   0.0000       0.552029        15.0215 
  19   0.0000       0.588057        16.0019 
  20   0.0000       0.648756        17.6536 
  21   0.0000       0.766068        20.8458 
  22   0.0000       0.841040        22.8859 
  23   0.0000       0.898304        24.4441 
  24   0.0000       1.109804        30.1993 
  25   0.0000       1.123718        30.5779 
  26   0.0000       1.158946        31.5365 
  27   0.0000       1.242491        33.8099 
  28   0.0000       1.320996        35.9461 
  29   0.0000       1.386097        37.7176 
  30   0.0000       1.419873        38.6367 
  31   0.0000       1.503421        40.9102 
  32   0.0000       1.505927        40.9784 
  33   0.0000       1.770818        48.1864 
  34   0.0000       1.885018        51.2940 
  35   0.0000       1.938003        52.7357 
  36   0.0000       2.103910        57.2503 
  37   0.0000       2.193553        59.6896 
  38   0.0000       2.280688        62.0607 
  39   0.0000       2.438158        66.3457 
  40   0.0000       2.670534        72.6689 
  41   0.0000       2.674895        72.7876 
  42   0.0000       2.879572        78.3571 
  43   0.0000       2.937013        79.9202 
  44   0.0000       2.946885        80.1888 
  45   0.0000       3.011031        81.9343 
  46   0.0000       3.039120        82.6987 
  47   0.0000       3.125152        85.0397 
  48   0.0000       3.223880        87.7262 
  49   0.0000       3.322518        90.4103 
  50   0.0000       3.353610        91.2564 
  51   0.0000       3.366523        91.6078 
  52   0.0000       3.876132       105.4749 
  53   0.0000       4.182926       113.8232 
  54   0.0000       4.223556       114.9288 
  55   0.0000       4.274126       116.3049 
  56   0.0000       4.388807       119.4255 
  57   0.0000       4.608620       125.4069 
  58   0.0000       4.644531       126.3841 
  59   0.0000       4.824685       131.2864 
  60   0.0000       4.925405       134.0271 
  61   0.0000       5.230067       142.3174 
  62   0.0000       5.377884       146.3397 
  63   0.0000       5.402508       147.0097 
  64   0.0000       5.696813       155.0182 
  65   0.0000       6.173982       168.0026 
  66   0.0000      21.966152       597.7294 
  67   0.0000      31.923928       868.6942 

                    ********************************
                    * MULLIKEN POPULATION ANALYSIS *
                    ********************************

-----------------------
MULLIKEN ATOMIC CHARGES
-----------------------
   0 C :   -0.191074
   1 N :    0.030856
   2 H :    0.160217
Sum of atomic charges:   -0.0000000

--------------------------------
MULLIKEN REDUCED ORBITAL CHARGES
--------------------------------
  0 C s       :     3.863858  s :     3.863858
      pz      :     0.886979  p :     2.207598
      px      :     0.605229
      py      :     0.715391
      dz2     :     0.026383  d :     0.108952
      dxz     :     0.022754
      dyz     :     0.014630
      dx2y2   :     0.017390
      dxy     :     0.027795
      f0      :     0.000901  f :     0.010666
      f+1     :     0.002786
      f-1     :     0.000351
      f+2     :     0.000842
      f-2     :     0.002208
      f+3     :     0.001628
      f-3     :     0.001950
  1 N s       :     3.603805  s :     3.603805
      pz      :     0.940013  p :     3.303700
      px      :     1.176709
      py      :     1.186979
      dz2     :     0.019513  d :     0.058435
      dxz     :     0.013575
      dyz     :     0.016968
      dx2y2   :     0.003078
      dxy     :     0.005301
      f0      :     0.001406  f :     0.003204
      f+1     :     0.000320
      f-1     :     0.000757
      f+2     :    -0.000074
      f-2     :     0.000396
      f+3     :     0.000139
      f-3     :     0.000260
  2 H s       :     0.759859  s :     0.759859
      pz      :     0.024688  p :     0.079924
      px      :     0.028656
      py      :     0.026580


                     *******************************
                     * LOEWDIN POPULATION ANALYSIS *
                     *******************************

----------------------
LOEWDIN ATOMIC CHARGES
----------------------
   0 C :   -0.158889
   1 N :    0.135974
   2 H :    0.022915

-------------------------------
LOEWDIN REDUCED ORBITAL CHARGES
-------------------------------
  0 C s       :     3.264680  s :     3.264680
      pz      :     1.031095  p :     2.534228
      px      :     0.786579
      py      :     0.716554
      dz2     :     0.068635  d :     0.297797
      dxz     :     0.088473
      dyz     :     0.032569
      dx2y2   :     0.066985
      dxy     :     0.041135
      f0      :     0.005506  f :     0.062184
      f+1     :     0.019675
      f-1     :     0.002445
      f+2     :     0.007443
      f-2     :     0.012039
      f+3     :     0.010489
      f-3     :     0.004588
  1 N s       :     3.177352  s :     3.177352
      pz      :     1.168031  p :     3.539175
      px      :     1.282061
      py      :     1.089083
      dz2     :     0.047934  d :     0.131310
      dxz     :     0.045154
      dyz     :     0.015554
      dx2y2   :     0.012226
      dxy     :     0.010442
      f0      :     0.005471  f :     0.016189
      f+1     :     0.002408
      f-1     :     0.000553
      f+2     :     0.003809
      f-2     :     0.002413
      f+3     :     0.000853
      f-3     :     0.000682
  2 H s       :     0.721655  s :     0.721655
      pz      :     0.085227  p :     0.255430
      px      :     0.096922
      py      :     0.073281


                      *****************************
                      * MAYER POPULATION ANALYSIS *
                      *****************************

  NA   - Mulliken gross atomic population
  ZA   - Total nuclear charge
  QA   - Mulliken gross atomic charge
  VA   - Mayer's total valence
  BVA  - Mayer's bonded valence
  FA   - Mayer's free valence

  ATOM       NA         ZA         QA         VA         BVA        FA
  0 C      6.1911     6.0000    -0.1911     2.4880     2.4880    -0.0000
  1 N      6.9691     7.0000     0.0309     2.7648     2.7648    -0.0000
  2 H      0.8398     1.0000     0.1602     1.1228     1.1228     0.0000

  Mayer bond orders larger than 0.100000
B(  0-C ,  1-N ) :   2.0650 B(  0-C ,  2-H ) :   0.4230 B(  1-N ,  2-H ) :   0.6998 


-------
TIMINGS
-------

Total SCF time: 0 days 0 hours 0 min 1 sec 

Total time                  ....       1.820 sec
Sum of individual times     ....       1.681 sec  ( 92.4%)

Fock matrix formation       ....       1.425 sec  ( 78.3%)
  Split-RI-J                ....       0.148 sec  ( 10.4% of F)
  Chain of spheres X        ....       0.680 sec  ( 47.7% of F)
  XC integration            ....       0.299 sec  ( 21.0% of F)
    Basis function eval.    ....       0.040 sec  ( 13.4% of XC)
    Density eval.           ....       0.039 sec  ( 13.0% of XC)
    XC-Functional eval.     ....       0.010 sec  (  3.3% of XC)
    XC-Potential eval.      ....       0.038 sec  ( 12.7% of XC)
Diagonalization             ....       0.023 sec  (  1.3%)
Density matrix formation    ....       0.000 sec  (  0.0%)
Population analysis         ....       0.011 sec  (  0.6%)
Initial guess               ....       0.018 sec  (  1.0%)
Orbital Transformation      ....       0.000 sec  (  0.0%)
Orbital Orthonormalization  ....       0.000 sec  (  0.0%)
DIIS solution               ....       0.022 sec  (  1.2%)
SOSCF solution              ....       0.019 sec  (  1.0%)
Grid generation             ....       0.163 sec  (  9.0%)

Maximum memory used throughout the entire SCF-calculation: 58.4 MB

-------------------------   --------------------
FINAL SINGLE POINT ENERGY       -93.192885266969
-------------------------   --------------------



           ************************************************************
           *        Program running with 5 parallel MPI-processes     *
           *              working on a common directory               *
           ************************************************************
------------------------------------------------------------------------------
                         ORCA SCF GRADIENT CALCULATION
------------------------------------------------------------------------------

 ... reading COSX grid (gridx3)
Gradient of the Kohn-Sham DFT energy:
Kohn-Sham wavefunction type      ... RKS
Hartree-Fock exchange scaling    ...    0.250
Number of operators              ...    1
Number of atoms                  ...    3
Basis set dimensions             ...   68
Integral neglect threshold       ... 2.5e-11
Integral primitive cutoff        ... 2.5e-12
SHARK Integral package           ... ON

Nuc. rep. gradient       (SHARK) ... done (  0.0 sec)
HCore & Overlap gradient (SHARK) ... done (  0.0 sec)
RI-J gradient            (SHARK) ... done (  0.0 sec)
COSX-gradient                    ... done (  0.2 sec)
Exchange-correlation gradient    ... done

------------------
CARTESIAN GRADIENT
------------------

   1   C   :   -0.159706312    0.007909686   -0.019715908
   2   N   :   -0.062708366    0.003122880    0.298373574
   3   H   :    0.222477511   -0.011047656   -0.278644353

Difference to translation invariance:
           :    0.0000628326   -0.0000150896    0.0000133121

Difference to rotation invariance:
           :   -0.0000030999   -0.0000220148   -0.0000750067

Norm of the cartesian gradient     ...    0.4961725878
RMS gradient                       ...    0.1653908626
MAX gradient                       ...    0.2983735736

-------
TIMINGS
-------

Total SCF gradient time            ...        0.371 sec

One electron gradient       ....       0.003 sec  (  0.8%)
RI-J Coulomb gradient       ....       0.045 sec  ( 12.1%)
COSX gradient               ....       0.153 sec  ( 41.2%)
XC gradient                 ....       0.062 sec  ( 16.7%)

Maximum memory used throughout the entire SCFGRAD-calculation: 33.5 MB

                            ***************************************
                            *     ORCA property calculations      *
                            ***************************************

                                    ---------------------
                                    Active property flags
                                    ---------------------
   (+) Dipole Moment
   (+) Chemical Shifts
   (+) Nuclear properties (Hyperfine,Quadrupole)


------------------------------------------------------------------------------
                       ORCA ELECTRIC PROPERTIES CALCULATION
------------------------------------------------------------------------------

Dipole Moment Calculation                       ... on
Quadrupole Moment Calculation                   ... off
Polarizability Calculation                      ... off
GBWName                                         ... HCN_45.gbw
Electron density                                ... HCN_45.scfp
The origin for moment calculation is the CENTER OF MASS  = (-2.783242,  1.859086 -0.804088)

-------------
DIPOLE MOMENT
-------------
                                X             Y             Z
Electronic contribution:      0.30757      -0.01527      -0.25994
Nuclear contribution   :     -0.56057       0.02782       0.39702
                        -----------------------------------------
Total Dipole Moment    :     -0.25300       0.01256       0.13709
                        -----------------------------------------
Magnitude (a.u.)       :      0.28803
Magnitude (Debye)      :      0.73210



--------------------
Rotational spectrum 
--------------------
 
Rotational constants in cm-1:    30.868994     1.943491     1.828377 
Rotational constants in MHz : 925429.153727 58264.386660 54813.374110 

 Dipole components along the rotational axes: 
x,y,z [a.u.] :     0.084283     0.275419    -0.000003 
x,y,z [Debye]:     0.214230     0.700059    -0.000009 

 


           ************************************************************
           *        Program running with 5 parallel MPI-processes     *
           *              working on a common directory               *
           ************************************************************
------------------------------------------------------------------------------
                                ORCA EPR/NMR CALCULATION
------------------------------------------------------------------------------

GBWName                      ... HCN_45.gbw
Electron density             ... HCN_45.scfp
Spin density                 ... HCN_45.scfr
Treatment of gauge           ... GIAO (approximations 1/2el = 0,0)
Details of the CP(SCF) procedure:
       Solver   = POPLE   
       MaxIter  =    64   
       Tolerance=    1.000e-04
       COSX Grid=     1   
       Op-0     =   0-  6 =>   7- 67
Multiplicity                 ... 1
g-tensor                     ... 0
NMR chemical shifts          ... 1
NMR spin-spin couplings      ... 0
NMR spectrum                 ... 0
Number of nuclei for epr/nmr ... 3
   Nucleus:   1N 
       Hyperfine : Isotope=   14 I=   1.000 P=  38.568
       Quadrupole: Isotope=   14 I=   1.000 Q=   0.020
       Spin-Orbit: Zeff=   4.550
       Nuclear Spin-Spin: Gn=   0.000
       EPRNMR Input: 
       rho(0)=N f(grad)=N a(iso)=N a(dip)=N a(orb)=N sigma(nmr)=Y spin-spin(nmr)=all-N,DSO-N,PSO-N,FC-N,SD-N
   Nucleus:   0C 
       Hyperfine : Isotope=   13 I=   0.500 P= 134.190
       Quadrupole: Isotope=   13 I=   0.500 Q=   0.000
       Spin-Orbit: Zeff=   3.600
       Nuclear Spin-Spin: Gn=   0.000
       EPRNMR Input: 
       rho(0)=N f(grad)=N a(iso)=N a(dip)=N a(orb)=N sigma(nmr)=Y spin-spin(nmr)=all-N,DSO-N,PSO-N,FC-N,SD-N
   Nucleus:   2H 
       Hyperfine : Isotope=    1 I=   0.500 P= 533.551
       Quadrupole: Isotope=    2 I=   1.000 Q=   0.003
       Spin-Orbit: Zeff=   1.000
       Nuclear Spin-Spin: Gn=   0.000
       EPRNMR Input: 
       rho(0)=N f(grad)=N a(iso)=N a(dip)=N a(orb)=N sigma(nmr)=Y spin-spin(nmr)=all-N,DSO-N,PSO-N,FC-N,SD-N
Forming RHS of the CP-SCF equations         ... 
Calculating right hand sides for GIAO treatment        ... 
  Entering RightHandSide GIAO. ScalHFX=    0.2500 NeedHFX=1
     -> 1-electron GIAO integrals will be done analytically
     -> RIJCOSX used in SCF. Same chosen for GIAO calculation.
     Making grid for GIAO integrations   ...

GRID GIAO
---------

General Integration Accuracy     IntAcc      ... 4.388
Radial Grid Type                 RadialGrid  ... OptM3 with GC (2021)
Angular Grid (max. ang.)         AngularGrid ... 4 (Lebedev-302)
Angular grid pruning method      GridPruning ... 4 (adaptive)
Weight generation scheme         WeightScheme... Becke
Basis function cutoff            BFCut       ... 1.0000e-11
Integration weight cutoff        WCut        ... 1.0000e-14
Angular grids for H and He will be reduced by one unit
Partially contracted basis set               ... off
Rotationally invariant grid construction     ... off

Total number of grid points                  ...    15543
Total number of batches                      ...      244
Average number of points per batch           ...       63
Average number of grid points per atom       ...     5181

  One-electron GIAO integrals (SHARK)     ... done
  Calculating G(B)[P]                     ... (RI-J: SHARK-ok) (COSX-ok) (add-J+K:ok) => dG/dB done
  DFT XC-terms                            ... done
  Extracting occupied and virtual blocks  ... 
  Operator  0  NO=   7 NV=  61 
  Transforming and RHS contribution       ... done
  Adding eps_i * S(B)_ai terms            ... done
  Projecting overlap derivatives          ... done
  Building G[dS/dB_ij] (COSX)             ... done
  Transforming to MO basis                ... done
  Summing G[dS/dB_ij] into RHS contribs.  ... done

  GIAO profiling information: 
    Total GIAO time               ...       0.4 sec
       GIAO 1-electron integrals  ...       0.0 sec (  0.5%)
       GIAO G(dS/dB) terms        ...       0.1 sec ( 15.5%)
       GIAO RI-J                  ...       0.0 sec (  7.1%)
       GIAO COSX                  ...       0.1 sec ( 21.8%)
       GIAO XC-terms              ...       0.1 sec ( 35.4%)
       Right hand side assembly   ...       0.0 sec (  0.3%)

  GIAO right hand side done


------------------------------------------------------------------------------
                           ORCA CP-SCF CALCULATION
------------------------------------------------------------------------------

Input orbitals are from        ... HCN_45.gbw
Input Perturbation             ... HCN_45.pin.tmp
Wavefunction output            ... HCN_45.pout.tmp
Perturbation mode              ... Imaginary perturbation
Solver                         ... POPLE
Max. number of iterations      ... 64
Convergence tolerance          ... 1.000e-04
Integral handling              ... Direct
DFT GridXC                     ... 1
COSX GridX                     ... 1
COSX IntAccX                   ... 3.067
COSX Algorithm                 ... Auto
Number of perturbations        ... 3
Number of operators            ... 1
Orbital ranges used for CP-SCF:
 Operator 0:  Orbitals   0...  6  to   7... 67
Variables per perturbation     ... 427
DFT calculation                         ... on
XC functional terms                     ... off
Hybrid DFT                              ... on
   Exchange mixing (SCF)                ...  0.250
   Exchange mixing (CP-SCF)             ...  0.250
   GGA exch. scaling(SCF)               ...  0.750
   GGA exch. scaling (CP-SCF)           ...  0.750
   GGA corr. scaling (SCF)              ...  1.000
   GGA corr. scaling (CP-SCF)           ...  1.000

CP-SCF GRID
-----------

General Integration Accuracy     IntAcc      ... 3.467
Radial Grid Type                 RadialGrid  ... OptM3 with GC (2021)
Angular Grid (max. ang.)         AngularGrid ... 1 (Lebedev-50)
Angular grid pruning method      GridPruning ... 4 (adaptive)
Weight generation scheme         WeightScheme... Becke
Basis function cutoff            BFCut       ... 1.0000e-11
Integration weight cutoff        WCut        ... 1.0000e-14
Angular grids for H and He will be reduced by one unit
Partially contracted basis set               ... off
Rotationally invariant grid construction     ... off

Total number of grid points                  ...     2354
Total number of batches                      ...       38
Average number of points per batch           ...       61
Average number of grid points per atom       ...      785

CP-SCF GRIDX
------------

General Integration Accuracy     IntAcc      ... 3.067
Radial Grid Type                 RadialGrid  ... OptM3 with GC (2021)
Angular Grid (max. ang.)         AngularGrid ... 1 (Lebedev-50)
Angular grid pruning method      GridPruning ... 4 (adaptive)
Weight generation scheme         WeightScheme... Becke
Basis function cutoff            BFCut       ... 1.0000e-11
Integration weight cutoff        WCut        ... 1.0000e-14
Angular grids for H and He will be reduced by one unit
Partially contracted basis set               ... on
Rotationally invariant grid construction     ... off

Total number of grid points                  ...     1048
Total number of batches                      ...       19
Average number of points per batch           ...       55
Average number of grid points per atom       ...      349

Memory available               ... 1015.8 MB
Memory needed per perturbation ...   0.2 MB
Perturbations treated per batch... 3
Number of batches              ... 1
     CP-SCF ITERATION   0:   3.6920e-01 (   0.0 sec   0/  3 done)
     CP-SCF ITERATION   1:   1.1659e-02 (   0.0 sec   0/  3 done)
     CP-SCF ITERATION   2:   7.8950e-04 (   0.0 sec   0/  3 done)
     CP-SCF ITERATION   3:   4.2173e-05 (   0.0 sec   3/  3 done)
                    *** THE CP-SCF HAS CONVERGED ***

Forming final perturbed densities           ... done
Transforming perturbed density to AO basis  ... done

Magnetic field perturbation calculated in  0.598 sec

---------------
CHEMICAL SHIFTS
---------------

Note: using conversion factor for au to ppm alpha^2/2 =   26.625677252 
GIAO: Analytic para- and diamagnetic shielding integrals (SHARK)       ...done
 --------------
 Nucleus   1N :
 --------------

Diamagnetic contribution to the shielding tensor (ppm) : 
           324.305         -2.215         8.480
            -0.628        311.799        -0.418
             6.774         10.619       324.991

Paramagnetic contribution to the shielding tensor (ppm): 
          -234.417        -10.489       277.312
           -12.078       -478.461       -13.722
           260.124        -23.827      -264.633

Total shielding tensor (ppm): 
            89.888        -12.703       285.793
           -12.706       -166.662       -14.141
           266.898        -13.208        60.358


 Diagonalized sT*s matrix:
 
 sDSO           311.685          317.339          332.071  iso=     320.365
 sPSO          -478.975         -516.843           18.307  iso=    -325.837
        ---------------  ---------------  ---------------
 Total         -167.290         -199.504          350.378  iso=      -5.472

 --------------
 Nucleus   0C :
 --------------

Diamagnetic contribution to the shielding tensor (ppm) : 
           265.740         -5.591         4.842
            -0.807        249.705        -0.241
             6.511          0.635       265.178

Paramagnetic contribution to the shielding tensor (ppm): 
          -208.620         -6.419       182.840
           -11.202       -434.794        -9.036
           199.529        -10.813      -188.490

Total shielding tensor (ppm): 
            57.120        -12.010       187.682
           -12.009       -185.089        -9.278
           206.040        -10.179        76.687


 Diagonalized sT*s matrix:
 
 sDSO           259.923          249.428          271.272  iso=     260.208
 sPSO          -388.232         -435.111           -8.562  iso=    -277.301
        ---------------  ---------------  ---------------
 Total         -128.309         -185.683          262.710  iso=     -17.094

 --------------
 Nucleus   2H :
 --------------

Diamagnetic contribution to the shielding tensor (ppm) : 
            51.090        -12.855        -6.116
            -1.690         17.634         0.307
           -10.232         11.507        48.741

Paramagnetic contribution to the shielding tensor (ppm): 
            -8.265         14.114        10.695
             2.947         50.514        -0.537
             5.280        -11.265        -7.633

Total shielding tensor (ppm): 
            42.824          1.259         4.579
             1.257         68.148        -0.229
            -4.952          0.242        41.109


 Diagonalized sT*s matrix:
 
 sDSO            47.832           52.638           16.996  iso=      39.155
 sPSO            -6.738           -9.860           51.215  iso=      11.539
        ---------------  ---------------  ---------------
 Total           41.093           42.777           68.210  iso=      50.694



--------------------------------
CHEMICAL SHIELDING SUMMARY (ppm)
--------------------------------


  Nucleus  Element    Isotropic     Anisotropy
  -------  -------  ------------   ------------
      1       N           -5.472        533.775 
      0       C          -17.094        419.706 
      2       H           50.694         26.275 



Maximum memory used throughout the entire EPRNMR-calculation: 10.2 MB

----------------------------------------------------------------------------
                           ORCA NUMERICAL FREQUENCIES
                              (5-process run)
----------------------------------------------------------------------------

Number of atoms                ... 3
Central differences            ... used
Number of displacements        ... 18
Numerical increment            ... 5.000e-03 bohr
IR-spectrum generation         ... on
Raman-spectrum generation      ... off
Surface Crossing Hessian       ... off

The output will be reduced. Please look at the following files:
SCF program output             ... >HCN_45.lastscf
Integral program output        ... >HCN_45.lastint
Gradient program output        ... >HCN_45.lastgrad
Dipole moment program output   ... >HCN_45.lastmom
AutoCI program output          ... >HCN_45.lastautoci

	<< Calculating on displaced geometry   5 (of  18) >>
	<< Calculating on displaced geometry   3 (of  18) >>
	<< Calculating on displaced geometry   4 (of  18) >>
	<< Calculating on displaced geometry   1 (of  18) >>
	<< Calculating on displaced geometry   2 (of  18) >>
	<< Calculating on displaced geometry   6 (of  18) >>
	<< Calculating on displaced geometry   8 (of  18) >>
	<< Calculating on displaced geometry   9 (of  18) >>
	<< Calculating on displaced geometry   7 (of  18) >>
	<< Calculating on displaced geometry  10 (of  18) >>
	<< Calculating on displaced geometry  11 (of  18) >>
	<< Calculating on displaced geometry  13 (of  18) >>
	<< Calculating on displaced geometry  12 (of  18) >>
	<< Calculating on displaced geometry  14 (of  18) >>
	<< Calculating on displaced geometry  15 (of  18) >>
	<< Calculating on displaced geometry  16 (of  18) >>
	<< Calculating on displaced geometry  17 (of  18) >>
	<< Calculating on displaced geometry  18 (of  18) >>

-----------------------
VIBRATIONAL FREQUENCIES
-----------------------

Scaling factor for frequencies =  1.000000000 (already applied!)

   0:         0.00 cm**-1
   1:         0.00 cm**-1
   2:         0.00 cm**-1
   3:         0.00 cm**-1
   4:         0.00 cm**-1
   5:         0.00 cm**-1
   6:      1765.96 cm**-1
   7:      2330.85 cm**-1
   8:      5687.87 cm**-1


------------
NORMAL MODES
------------

These modes are the cartesian displacements weighted by the diagonal matrix
M(i,i)=1/sqrt(m[i]) where m[i] is the mass of the displaced atom
Thus, these vectors are normalized but *not* orthogonal

                  0          1          2          3          4          5    
      0       0.000000   0.000000   0.000000   0.000000   0.000000   0.000000
      1       0.000000   0.000000   0.000000   0.000000   0.000000   0.000000
      2       0.000000   0.000000   0.000000   0.000000   0.000000   0.000000
      3       0.000000   0.000000   0.000000   0.000000   0.000000   0.000000
      4       0.000000   0.000000   0.000000   0.000000   0.000000   0.000000
      5       0.000000   0.000000   0.000000   0.000000   0.000000   0.000000
      6       0.000000   0.000000   0.000000   0.000000   0.000000   0.000000
      7       0.000000   0.000000   0.000000   0.000000   0.000000   0.000000
      8       0.000000   0.000000   0.000000   0.000000   0.000000   0.000000
                  6          7          8    
      0      -0.032105  -0.276512   0.013958
      1       0.001579   0.013683  -0.000692
      2      -0.118562  -0.201843   0.000422
      3       0.093793   0.182316   0.018796
      4      -0.004635  -0.009021  -0.000938
      5       0.125581   0.137145  -0.065209
      6      -0.920772   0.761391  -0.427515
      7       0.045598  -0.037682   0.021281
      8      -0.332296   0.499347   0.901097


-----------
IR SPECTRUM
-----------

 Mode   freq       eps      Int      T**2         TX        TY        TZ
       cm**-1   L/(mol*cm) km/mol    a.u.
----------------------------------------------------------------------------
  6:   1765.96   0.012413   62.73  0.002194  (-0.044169  0.002214  0.015419)
  7:   2330.85   0.005667   28.64  0.000759  (-0.010587  0.000509 -0.025424)
  8:   5687.87   0.020554  103.87  0.001128  (-0.031345  0.001564  0.011947)

* The epsilon (eps) is given for a Dirac delta lineshape.
** The dipole moment derivative (T) already includes vibrational overlap.

The first frequency considered to be a vibration is 6
The total number of vibrations considered is 3


--------------------------
THERMOCHEMISTRY AT 298.15K
--------------------------

Temperature         ... 298.15 K
Pressure            ... 1.00 atm
Total Mass          ... 27.03 AMU

Throughout the following assumptions are being made:
  (1) The electronic state is orbitally nondegenerate
  (2) There are no thermally accessible electronically excited states
  (3) Hindered rotations indicated by low frequency modes are not
      treated as such but are treated as vibrations and this may
      cause some error
  (4) All equations used are the standard statistical mechanics
      equations for an ideal gas
  (5) All vibrations are strictly harmonic

freq.    1765.96  E(vib)   ...       0.00 
freq.    2330.85  E(vib)   ...       0.00 
freq.    5687.87  E(vib)   ...       0.00 

------------
INNER ENERGY
------------

The inner energy is: U= E(el) + E(ZPE) + E(vib) + E(rot) + E(trans)
    E(el)   - is the total energy from the electronic structure calculation
              = E(kin-el) + E(nuc-el) + E(el-el) + E(nuc-nuc)
    E(ZPE)  - the the zero temperature vibrational energy from the frequency calculation
    E(vib)  - the the finite temperature correction to E(ZPE) due to population
              of excited vibrational states
    E(rot)  - is the rotational thermal energy
    E(trans)- is the translational thermal energy

Summary of contributions to the inner energy U:
Electronic energy                ...    -93.19288527 Eh
Zero point energy                ...      0.02229113 Eh      13.99 kcal/mol
Thermal vibrational correction   ...      0.00000174 Eh       0.00 kcal/mol
Thermal rotational correction    ...      0.00141627 Eh       0.89 kcal/mol
Thermal translational correction ...      0.00141627 Eh       0.89 kcal/mol
-----------------------------------------------------------------------
Total thermal energy                    -93.16775985 Eh


Summary of corrections to the electronic energy:
(perhaps to be used in another calculation)
Total thermal correction                  0.00283428 Eh       1.78 kcal/mol
Non-thermal (ZPE) correction              0.02229113 Eh      13.99 kcal/mol
-----------------------------------------------------------------------
Total correction                          0.02512542 Eh      15.77 kcal/mol


--------
ENTHALPY
--------

The enthalpy is H = U + kB*T
                kB is Boltzmann's constant
Total free energy                 ...    -93.16775985 Eh 
Thermal Enthalpy correction       ...      0.00094421 Eh       0.59 kcal/mol
-----------------------------------------------------------------------
Total Enthalpy                    ...    -93.16681564 Eh


Note: Rotational entropy computed according to Herzberg 
Infrared and Raman Spectra, Chapter V,1, Van Nostrand Reinhold, 1945 
Point Group:  Cs, Symmetry Number:   1  
Rotational constants in cm-1:    30.868994     1.943491     1.828377 

Vibrational entropy computed according to the QRRHO of S. Grimme
Chem.Eur.J. 2012 18 9955


-------
ENTROPY
-------

The entropy contributions are T*S = T*(S(el)+S(vib)+S(rot)+S(trans))
     S(el)   - electronic entropy
     S(vib)  - vibrational entropy
     S(rot)  - rotational entropy
     S(trans)- translational entropy
The entropies will be listed as multiplied by the temperature to get
units of energy

Electronic entropy                ...      0.00000000 Eh      0.00 kcal/mol
Vibrational entropy               ...      0.00000194 Eh      0.00 kcal/mol
Rotational entropy                ...      0.00729309 Eh      4.58 kcal/mol
Translational entropy             ...      0.01701823 Eh     10.68 kcal/mol
-----------------------------------------------------------------------
Final entropy term                ...      0.02431326 Eh     15.26 kcal/mol

In case the symmetry of your molecule has not been determined correctly
or in case you have a reason to use a different symmetry number we print 
out the resulting rotational entropy values for sn=1,12 :
 --------------------------------------------------------
|  sn= 1 | S(rot)=       0.00729309 Eh      4.58 kcal/mol|
|  sn= 2 | S(rot)=       0.00663863 Eh      4.17 kcal/mol|
|  sn= 3 | S(rot)=       0.00625580 Eh      3.93 kcal/mol|
|  sn= 4 | S(rot)=       0.00598417 Eh      3.76 kcal/mol|
|  sn= 5 | S(rot)=       0.00577349 Eh      3.62 kcal/mol|
|  sn= 6 | S(rot)=       0.00560134 Eh      3.51 kcal/mol|
|  sn= 7 | S(rot)=       0.00545580 Eh      3.42 kcal/mol|
|  sn= 8 | S(rot)=       0.00532972 Eh      3.34 kcal/mol|
|  sn= 9 | S(rot)=       0.00521851 Eh      3.27 kcal/mol|
|  sn=10 | S(rot)=       0.00511903 Eh      3.21 kcal/mol|
|  sn=11 | S(rot)=       0.00502904 Eh      3.16 kcal/mol|
|  sn=12 | S(rot)=       0.00494688 Eh      3.10 kcal/mol|
 --------------------------------------------------------


-------------------
GIBBS FREE ENERGY
-------------------

The Gibbs free energy is G = H - T*S

Total enthalpy                    ...    -93.16681564 Eh 
Total entropy correction          ...     -0.02431326 Eh    -15.26 kcal/mol
-----------------------------------------------------------------------
Final Gibbs free energy         ...    -93.19112890 Eh

For completeness - the Gibbs free energy minus the electronic energy
G-E(el)                           ...      0.00175636 Eh      1.10 kcal/mol



Timings for individual modules:

Sum of individual times         ...       71.270 sec (=   1.188 min)
GTO integral calculation        ...        4.500 sec (=   0.075 min)   6.3 %
SCF iterations                  ...        6.994 sec (=   0.117 min)   9.8 %
EPR/NMR calculation             ...        2.245 sec (=   0.037 min)   3.1 %
SCF Gradient evaluation         ...        4.010 sec (=   0.067 min)   5.6 %
Numerical frequency calculation ...       53.521 sec (=   0.892 min)  75.1 %
                             ****ORCA TERMINATED NORMALLY****
TOTAL RUN TIME: 0 days 0 hours 1 minutes 4 seconds 831 msec
