
                                 *****************
                                 * O   R   C   A *
                                 *****************

                                            #,                                       
                                            ###                                      
                                            ####                                     
                                            #####                                    
                                            ######                                   
                                           ########,                                 
                                     ,,################,,,,,                         
                               ,,#################################,,                 
                          ,,##########################################,,             
                       ,#########################################, ''#####,          
                    ,#############################################,,   '####,        
                  ,##################################################,,,,####,       
                ,###########''''           ''''###############################       
              ,#####''   ,,,,##########,,,,          '''####'''          '####       
            ,##' ,,,,###########################,,,                        '##       
           ' ,,###''''                  '''############,,,                           
         ,,##''                                '''############,,,,        ,,,,,,###''
      ,#''                                            '''#######################'''  
     '                                                          ''''####''''         
             ,#######,   #######,   ,#######,      ##                                
            ,#'     '#,  ##    ##  ,#'     '#,    #''#        ######   ,####,        
            ##       ##  ##   ,#'  ##            #'  '#       #        #'  '#        
            ##       ##  #######   ##           ,######,      #####,   #    #        
            '#,     ,#'  ##    ##  '#,     ,#' ,#      #,         ##   #,  ,#        
             '#######'   ##     ##  '#######'  #'      '#     #####' # '####'        



                  #######################################################
                  #                        -***-                        #
                  #          Department of theory and spectroscopy      #
                  #    Directorship and core code : Frank Neese         #
                  #        Max Planck Institute fuer Kohlenforschung    #
                  #                Kaiser Wilhelm Platz 1               #
                  #                 D-45470 Muelheim/Ruhr               #
                  #                      Germany                        #
                  #                                                     #
                  #                  All rights reserved                #
                  #                        -***-                        #
                  #######################################################


                         Program Version 5.0.3 -  RELEASE  -


 With contributions from (in alphabetic order):
   Daniel Aravena         : Magnetic Suceptibility
   Michael Atanasov       : Ab Initio Ligand Field Theory (pilot matlab implementation)
   Alexander A. Auer      : GIAO ZORA, VPT2 properties, NMR spectrum
   Ute Becker             : Parallelization
   Giovanni Bistoni       : ED, misc. LED, open-shell LED, HFLD
   Martin Brehm           : Molecular dynamics
   Dmytro Bykov           : SCF Hessian
   Vijay G. Chilkuri      : MRCI spin determinant printing, contributions to CSF-ICE
   Dipayan Datta          : RHF DLPNO-CCSD density
   Achintya Kumar Dutta   : EOM-CC, STEOM-CC
   Dmitry Ganyushin       : Spin-Orbit,Spin-Spin,Magnetic field MRCI
   Miquel Garcia          : C-PCM and meta-GGA Hessian, CC/C-PCM, Gaussian charge scheme
   Yang Guo               : DLPNO-NEVPT2, F12-NEVPT2, CIM, IAO-localization
   Andreas Hansen         : Spin unrestricted coupled pair/coupled cluster methods
   Benjamin Helmich-Paris : MC-RPA, TRAH-SCF, COSX integrals
   Lee Huntington         : MR-EOM, pCC
   Robert Izsak           : Overlap fitted RIJCOSX, COSX-SCS-MP3, EOM
   Marcus Kettner         : VPT2
   Christian Kollmar      : KDIIS, OOCD, Brueckner-CCSD(T), CCSD density, CASPT2, CASPT2-K
   Simone Kossmann        : Meta GGA functionals, TD-DFT gradient, OOMP2, MP2 Hessian
   Martin Krupicka        : Initial AUTO-CI
   Lucas Lang             : DCDCAS
   Marvin Lechner         : AUTO-CI (C++ implementation), FIC-MRCC
   Dagmar Lenk            : GEPOL surface, SMD
   Dimitrios Liakos       : Extrapolation schemes; Compound Job, initial MDCI parallelization
   Dimitrios Manganas     : Further ROCIS development; embedding schemes
   Dimitrios Pantazis     : SARC Basis sets
   Anastasios Papadopoulos: AUTO-CI, single reference methods and gradients
   Taras Petrenko         : DFT Hessian,TD-DFT gradient, ASA, ECA, R-Raman, ABS, FL, XAS/XES, NRVS
   Peter Pinski           : DLPNO-MP2, DLPNO-MP2 Gradient
   Christoph Reimann      : Effective Core Potentials
   Marius Retegan         : Local ZFS, SOC
   Christoph Riplinger    : Optimizer, TS searches, QM/MM, DLPNO-CCSD(T), (RO)-DLPNO pert. Triples
   Tobias Risthaus        : Range-separated hybrids, TD-DFT gradient, RPA, STAB
   Michael Roemelt        : Original ROCIS implementation
   Masaaki Saitow         : Open-shell DLPNO-CCSD energy and density
   Barbara Sandhoefer     : DKH picture change effects
   Avijit Sen             : IP-ROCIS
   Kantharuban Sivalingam : CASSCF convergence, NEVPT2, FIC-MRCI
   Bernardo de Souza      : ESD, SOC TD-DFT
   Georgi Stoychev        : AutoAux, RI-MP2 NMR, DLPNO-MP2 response
   Willem Van den Heuvel  : Paramagnetic NMR
   Boris Wezisla          : Elementary symmetry handling
   Frank Wennmohs         : Technical directorship


 We gratefully acknowledge several colleagues who have allowed us to
 interface, adapt or use parts of their codes:
   Stefan Grimme, W. Hujo, H. Kruse, P. Pracht,  : VdW corrections, initial TS optimization,
                  C. Bannwarth, S. Ehlert          DFT functionals, gCP, sTDA/sTD-DF
   Ed Valeev, F. Pavosevic, A. Kumar             : LibInt (2-el integral package), F12 methods
   Garnet Chan, S. Sharma, J. Yang, R. Olivares  : DMRG
   Ulf Ekstrom                                   : XCFun DFT Library
   Mihaly Kallay                                 : mrcc  (arbitrary order and MRCC methods)
   Jiri Pittner, Ondrej Demel                    : Mk-CCSD
   Frank Weinhold                                : gennbo (NPA and NBO analysis)
   Christopher J. Cramer and Donald G. Truhlar   : smd solvation model
   Lars Goerigk                                  : TD-DFT with DH, B97 family of functionals
   V. Asgeirsson, H. Jonsson                     : NEB implementation
   FAccTs GmbH                                   : IRC, NEB, NEB-TS, DLPNO-Multilevel, CI-OPT
                                                   MM, QMMM, 2- and 3-layer-ONIOM, Crystal-QMMM,
                                                   LR-CPCM, SF, NACMEs, symmetry and pop. for TD-DFT,
                                                   nearIR, NL-DFT gradient (VV10), updates on ESD,
                                                   ML-optimized integration grids
   S Lehtola, MJT Oliveira, MAL Marques          : LibXC Library
   Liviu Ungur et al                             : ANISO software


 Your calculation uses the libint2 library for the computation of 2-el integrals
 For citations please refer to: http://libint.valeyev.net

 Your ORCA version has been built with support for libXC version: 5.1.0
 For citations please refer to: https://tddft.org/programs/libxc/

 This ORCA versions uses:
   CBLAS   interface :  Fast vector & matrix operations
   LAPACKE interface :  Fast linear algebra routines
   Shared memory     :  Shared parallel matrices


SCAN-COORDS
================================================================================

----- Orbital basis set information -----
Your calculation utilizes the basis: def2-SVP
   F. Weigend and R. Ahlrichs, Phys. Chem. Chem. Phys. 7, 3297 (2005).

----- AuxJ basis set information -----
Your calculation utilizes the auxiliary basis: def2/J
   F. Weigend, Phys. Chem. Chem. Phys. 8, 1057 (2006).

================================================================================
                                        WARNINGS
                       Please study these warnings very carefully!
================================================================================


WARNING: The environment variable RSH_COMMAND is not set!
  ===> : All Displacements for the Numerical Hessian or Gradient calculation
         will be started on localhost

WARNING: Geometry Optimization
  ===> : Switching off AutoStart
         For restart on a previous wavefunction, please use MOREAD

INFO   : the flag for use of the SHARK integral package has been found!

================================================================================
                                       INPUT FILE
================================================================================
NAME = CoOOH_COMPLETE.inp
|  1> ! PAL5 VWN
|  2> %method
|  3>         method DFT
|  4>         runtyp OPT
|  5> end
|  6> 
|  7> %scf                  
|  8>        MaxIter 500
|  9> end
| 10> %geom                  
| 11>        MaxIter 500
| 12>        Convergence loose                                                  
| 13> end
| 14> 
| 15> %basis
| 16>         basis "def2-SVP"
| 17> end
| 18> ! NumFreq
| 19> %elprop
| 20>         Polar 1
| 21> end
| 22> %output
| 23>         XYZFile true
| 24> end
| 25> %coords
| 26>         CTyp xyz
| 27>         Charge 0
| 28>         Mult 1
| 29>         Units Angs
| 30>         coords
| 31> 	Co    -1.671960    2.457770   -0.000000
| 32> 	O     -3.066310    1.598560   -0.000001
| 33> 	O     -0.110402    3.419370    0.000000
| 34> 	H      0.603334    2.732930    0.000000
| 35>         end
| 36> endd                         ****END OF INPUT****
================================================================================

                       *****************************
                       * Geometry Optimization Run *
                       *****************************

Geometry optimization settings:
Update method            Update   .... BFGS
Choice of coordinates    CoordSys .... Z-matrix Internals
Initial Hessian          InHess   .... Almoef's Model

Convergence Tolerances:
Energy Change            TolE     ....  3.0000e-05 Eh
Max. Gradient            TolMAXG  ....  2.0000e-03 Eh/bohr
RMS Gradient             TolRMSG  ....  5.0000e-04 Eh/bohr
Max. Displacement        TolMAXD  ....  1.0000e-02 bohr
RMS Displacement         TolRMSD  ....  7.0000e-03 bohr
Strict Convergence                ....  False
------------------------------------------------------------------------------
                        ORCA OPTIMIZATION COORDINATE SETUP
------------------------------------------------------------------------------

The optimization will be done in new redundant internal coordinates
Making redundant internal coordinates   ...  (new redundants) done
Evaluating the initial hessian          ...  (Almloef) done
Evaluating the coordinates              ...  done
Calculating the B-matrix                .... done
Calculating the G-matrix                .... done
Diagonalizing the G-matrix              .... done
The first mode is                       ....    0
The number of degrees of freedom        ....    6

    -----------------------------------------------------------------
                    Redundant Internal Coordinates


    -----------------------------------------------------------------
         Definition                    Initial Value    Approx d2E/dq
    -----------------------------------------------------------------
      1. B(O   1,Co  0)                  1.6378         2.278345   
      2. B(O   2,Co  0)                  1.8339         1.108686   
      3. B(H   3,O   2)                  0.9903         0.465249   
      4. L(O   1,Co  0,O   2,H   3, 2) 179.9999         0.785620   
      5. L(O   1,Co  0,O   2,H   3, 1) 179.9828         0.785620   
      6. A(Co  0,O   2,H   3)          104.4923         0.450987   
    -----------------------------------------------------------------

Number of atoms                         .... 4
Number of degrees of freedom            .... 6

         *************************************************************
         *                GEOMETRY OPTIMIZATION CYCLE   1            *
         *************************************************************
---------------------------------
CARTESIAN COORDINATES (ANGSTROEM)
---------------------------------
  Co    -1.671960    2.457770   -0.000000
  O     -3.066310    1.598560   -0.000001
  O     -0.110402    3.419370    0.000000
  H      0.603334    2.732930    0.000000

----------------------------
CARTESIAN COORDINATES (A.U.)
----------------------------
  NO LB      ZA    FRAG     MASS         X           Y           Z
   0 Co   27.0000    0    58.930   -3.159547    4.644512   -0.000000
   1 O     8.0000    0    15.999   -5.794486    3.020841   -0.000002
   2 O     8.0000    0    15.999   -0.208630    6.461673    0.000000
   3 H     1.0000    0     1.008    1.140136    5.164489    0.000000

--------------------------------
INTERNAL COORDINATES (ANGSTROEM)
--------------------------------
 Co     0   0   0     0.000000000000     0.00000000     0.00000000
 O      1   0   0     1.637819815059     0.00000000     0.00000000
 O      1   2   0     1.833886023548   179.98284525     0.00000000
 H      3   1   2     0.990262061929   104.49225786   359.88315907

---------------------------
INTERNAL COORDINATES (A.U.)
---------------------------
 Co     0   0   0     0.000000000000     0.00000000     0.00000000
 O      1   0   0     3.095030907172     0.00000000     0.00000000
 O      1   2   0     3.465542345331   179.98284525     0.00000000
 H      3   1   2     1.871324097858   104.49225786   359.88315907

---------------------
BASIS SET INFORMATION
---------------------
There are 3 groups of distinct atoms

 Group   1 Type Co  : 14s9p5d1f contracted to 5s3p2d1f pattern {63311/531/41/1}
 Group   2 Type O   : 7s4p1d contracted to 3s2p1d pattern {511/31/1}
 Group   3 Type H   : 4s1p contracted to 2s1p pattern {31/1}

Atom   0Co   basis set group =>   1
Atom   1O    basis set group =>   2
Atom   2O    basis set group =>   2
Atom   3H    basis set group =>   3
---------------------------------
AUXILIARY/J BASIS SET INFORMATION
---------------------------------
There are 3 groups of distinct atoms

 Group   1 Type Co  : 19s5p5d3f3g contracted to 8s5p5d2f3g pattern {121111111/11111/11111/21/111}
 Group   2 Type O   : 12s5p4d2f1g contracted to 6s4p3d1f1g pattern {711111/2111/211/2/1}
 Group   3 Type H   : 5s2p1d contracted to 3s1p1d pattern {311/2/1}

Atom   0Co   basis set group =>   1
Atom   1O    basis set group =>   2
Atom   2O    basis set group =>   2
Atom   3H    basis set group =>   3


           ************************************************************
           *        Program running with 5 parallel MPI-processes     *
           *              working on a common directory               *
           ************************************************************
------------------------------------------------------------------------------
                           ORCA GTO INTEGRAL CALCULATION
                           -- RI-GTO INTEGRALS CHOSEN --
------------------------------------------------------------------------------
------------------------------------------------------------------------------
                   ___                                                        
                  /   \      - P O W E R E D   B Y -                         
                 /     \                                                     
                 |  |  |   _    _      __       _____    __    __             
                 |  |  |  | |  | |    /  \     |  _  \  |  |  /  |          
                  \  \/   | |  | |   /    \    | | | |  |  | /  /          
                 / \  \   | |__| |  /  /\  \   | |_| |  |  |/  /          
                |  |  |   |  __  | /  /__\  \  |    /   |      \           
                |  |  |   | |  | | |   __   |  |    \   |  |\   \          
                \     /   | |  | | |  |  |  |  | |\  \  |  | \   \       
                 \___/    |_|  |_| |__|  |__|  |_| \__\ |__|  \__/        
                                                                              
                      - O R C A' S   B I G   F R I E N D -                    
                                      &                                       
                       - I N T E G R A L  F E E D E R -                       
                                                                              
 v1 FN, 2020, v2 2021                                                         
------------------------------------------------------------------------------


Reading SHARK input file CoOOH_COMPLETE.SHARKINP.tmp ... ok
----------------------
SHARK INTEGRAL PACKAGE
----------------------

Number of atoms                             ...      4
Number of basis functions                   ...     64
Number of shells                            ...     26
Maximum angular momentum                    ...      3
Integral batch strategy                     ... SHARK/LIBINT Hybrid
RI-J (if used) integral strategy            ... SPLIT-RIJ (Revised 2003 algorithm where possible)
Printlevel                                  ...      1
Contraction scheme used                     ... SEGMENTED contraction
Coulomb Range Separation                    ... NOT USED
Exchange Range Separation                   ... NOT USED
Finite Nucleus Model                        ... NOT USED
Auxiliary Coulomb fitting basis             ... AVAILABLE
   # of basis functions in Aux-J            ...    198
   # of shells in Aux-J                     ...     58
   Maximum angular momentum in Aux-J        ...      4
Auxiliary J/K fitting basis                 ... NOT available
Auxiliary Correlation fitting basis         ... NOT available
Auxiliary 'external' fitting basis          ... NOT available
Integral threshold                          ...     2.500000e-11
Primitive cut-off                           ...     2.500000e-12
Primitive pair pre-selection threshold      ...     2.500000e-12

Calculating pre-screening integrals         ... done (  0.0 sec) Dimension = 26
Organizing shell pair data                  ... done (  0.0 sec)
Shell pair information
Total number of shell pairs                 ...       351
Shell pairs after pre-screening             ...       337
Total number of primitive shell pairs       ...      1780
Primitive shell pairs kept                  ...      1375
          la=0 lb=0:     84 shell pairs
          la=1 lb=0:     99 shell pairs
          la=1 lb=1:     36 shell pairs
          la=2 lb=0:     50 shell pairs
          la=2 lb=1:     32 shell pairs
          la=2 lb=2:     10 shell pairs
          la=3 lb=0:     13 shell pairs
          la=3 lb=1:      8 shell pairs
          la=3 lb=2:      4 shell pairs
          la=3 lb=3:      1 shell pairs

Calculating one electron integrals          ... done (  0.0 sec)
Calculating RI/J V-Matrix + Cholesky decomp.... done (  0.0 sec)
Calculating Nuclear repulsion               ... done (  0.0 sec) ENN=    153.483771496563 Eh

SHARK setup successfully completed in   0.1 seconds

Maximum memory used throughout the entire GTOINT-calculation: 14.1 MB


           ************************************************************
           *        Program running with 5 parallel MPI-processes     *
           *              working on a common directory               *
           ************************************************************
-------------------------------------------------------------------------------
                                 ORCA SCF
-------------------------------------------------------------------------------

------------
SCF SETTINGS
------------
Hamiltonian:
 Density Functional     Method          .... DFT(GTOs)
 Exchange Functional    Exchange        .... Slater
   X-Alpha parameter    XAlpha          ....  0.666667
 Correlation Functional Correlation     .... VWN-5
 Gradients option       PostSCFGGA      .... off
   Density functional embedding theory  .... OFF
 RI-approximation to the Coulomb term is turned on
   Number of AuxJ basis functions       .... 198


General Settings:
 Integral files         IntName         .... CoOOH_COMPLETE
 Hartree-Fock type      HFTyp           .... RHF
 Total Charge           Charge          ....    0
 Multiplicity           Mult            ....    1
 Number of Electrons    NEL             ....   44
 Basis Dimension        Dim             ....   64
 Nuclear Repulsion      ENuc            ....    153.4837714966 Eh

Convergence Acceleration:
 DIIS                   CNVDIIS         .... on
   Start iteration      DIISMaxIt       ....    12
   Startup error        DIISStart       ....  0.200000
   # of expansion vecs  DIISMaxEq       ....     5
   Bias factor          DIISBfac        ....   1.050
   Max. coefficient     DIISMaxC        ....  10.000
 Trust-Rad. Augm. Hess. CNVTRAH         .... auto
   Auto Start mean grad. ratio tolernc. ....  1.125000
   Auto Start start iteration           ....    20
   Auto Start num. interpolation iter.  ....    10
   Max. Number of Micro iterations      ....    16
   Max. Number of Macro iterations      .... Maxiter - #DIIS iter
   Number of Davidson start vectors     ....     2
   Converg. threshold I  (grad. norm)   ....   1.000e-05
   Converg. threshold II (energy diff.) ....   1.000e-08
   Grad. Scal. Fac. for Micro threshold ....   0.100
   Minimum threshold for Micro iter.    ....   0.010
   NR start threshold (gradient norm)   ....   0.001
   Initial trust radius                 ....   0.400
   Minimum AH scaling param. (alpha)    ....   1.000
   Maximum AH scaling param. (alpha)    .... 1000.000
   Orbital update algorithm             .... Taylor
   White noise on init. David. guess    .... on
   Maximum white noise                  ....   0.010
   Quad. conv. algorithm                .... NR
 SOSCF                  CNVSOSCF        .... off
 Level Shifting         CNVShift        .... on
   Level shift para.    LevelShift      ....    0.2500
   Turn off err/grad.   ShiftErr        ....    0.0010
 Zerner damping         CNVZerner       .... off
 Static damping         CNVDamp         .... on
   Fraction old density DampFac         ....    0.7000
   Max. Damping (<1)    DampMax         ....    0.9800
   Min. Damping (>=0)   DampMin         ....    0.0000
   Turn off err/grad.   DampErr         ....    0.1000
 Fernandez-Rico         CNVRico         .... off

SCF Procedure:
 Maximum # iterations   MaxIter         ....   500
 SCF integral mode      SCFMode         .... Direct
   Integral package                     .... SHARK and LIBINT hybrid scheme
 Reset frequency        DirectResetFreq ....    20
 Integral Threshold     Thresh          ....  2.500e-11 Eh
 Primitive CutOff       TCut            ....  2.500e-12 Eh

Convergence Tolerance:
 Convergence Check Mode ConvCheckMode   .... Total+1el-Energy
 Convergence forced     ConvForced      .... 0
 Energy Change          TolE            ....  1.000e-08 Eh
 1-El. energy change                    ....  1.000e-05 Eh
 DIIS Error             TolErr          ....  5.000e-07


Diagonalization of the overlap matrix:
Smallest eigenvalue                        ... 2.388e-02
Time for diagonalization                   ...    0.001 sec
Threshold for overlap eigenvalues          ... 1.000e-08
Number of eigenvalues below threshold      ... 0
Time for construction of square roots      ...    0.004 sec
Total time needed                          ...    0.005 sec

Time for model grid setup =    0.038 sec

------------------------------
INITIAL GUESS: MODEL POTENTIAL
------------------------------
Loading Hartree-Fock densities                     ... done
Calculating cut-offs                               ... done
Initializing the effective Hamiltonian             ... done
Setting up the integral package (SHARK)            ... done
Starting the Coulomb interaction                   ... done (   0.0 sec)
Reading the grid                                   ... done
Mapping shells                                     ... done
Starting the XC term evaluation                    ... done (   0.0 sec)
  promolecular density results
     # of electrons  =     44.000409724
     EX              =    -69.338073704
     EC              =     -3.492746802
     EX+EC           =    -72.830820506
Transforming the Hamiltonian                       ... done (   0.0 sec)
Diagonalizing the Hamiltonian                      ... done (   0.0 sec)
Back transforming the eigenvectors                 ... done (   0.0 sec)
Now organizing SCF variables                       ... done
                      ------------------
                      INITIAL GUESS DONE (   0.1 sec)
                      ------------------
-------------------
DFT GRID GENERATION
-------------------

General Integration Accuracy     IntAcc      ... 4.388
Radial Grid Type                 RadialGrid  ... OptM3 with GC (2021)
Angular Grid (max. ang.)         AngularGrid ... 4 (Lebedev-302)
Angular grid pruning method      GridPruning ... 4 (adaptive)
Weight generation scheme         WeightScheme... Becke
Basis function cutoff            BFCut       ... 1.0000e-11
Integration weight cutoff        WCut        ... 1.0000e-14
Angular grids for H and He will be reduced by one unit
Partially contracted basis set               ... off
Rotationally invariant grid construction     ... off

Total number of grid points                  ...    26847
Total number of batches                      ...      421
Average number of points per batch           ...       63
Average number of grid points per atom       ...     6712
Time for grid setup =    0.109 sec

--------------
SCF ITERATIONS
--------------
ITER       Energy         Delta-E        Max-DP      RMS-DP      [F,P]     Damp
               ***  Starting incremental Fock matrix formation  ***
  0  -1529.3787024526   0.000000000000 0.31853105  0.01338011  0.4485850 0.7000
  1  -1529.4997359676  -0.121033515006 0.27412186  0.00834769  0.2496200 0.7000
                               ***Turning on DIIS***
  2  -1529.6407242235  -0.140988255960 0.54403677  0.01734340  0.0454437 0.0000
  3  -1529.6869213897  -0.046197166166 0.01553513  0.00095390  0.2873243 0.7000
  4  -1529.7131296168  -0.026208227077 0.02006205  0.00126529  0.2562155 0.7000
  5  -1529.7415763567  -0.028446739910 0.01881085  0.00124106  0.2115769 0.7000
  6  -1529.7647365870  -0.023160230345 0.02196247  0.00118794  0.1693623 0.7000
  7  -1529.7825817552  -0.017845168138 0.04216189  0.00206593  0.1361312 0.7000
  8  -1529.8056190597  -0.023037304583 0.13782461  0.00576598  0.0915806 0.0000
  9  -1529.8215186700  -0.015899610241 0.03738562  0.00151079  0.0925618 0.0000
 10  -1529.8273143378  -0.005795667803 0.02473696  0.00099859  0.0666756 0.0000
 11  -1529.8302886843  -0.002974346488 0.01861282  0.00066071  0.0395177 0.0000
 12  -1529.8316803385  -0.001391654220 0.01548110  0.00058124  0.0300270 0.0000
 13  -1529.8325748528  -0.000894514288 0.01291536  0.00053745  0.0069587 0.0000
 14  -1529.8329578284  -0.000382975648 0.01230295  0.00042250  0.0047620 0.0000
 15  -1529.8331855863  -0.000227757868 0.01152014  0.00040939  0.0036126 0.0000
 16  -1529.8333915123  -0.000205925964 0.01035613  0.00035765  0.0033809 0.0000
 17  -1529.8335578774  -0.000166365175 0.00841744  0.00028553  0.0031590 0.0000
 18  -1529.8336791166  -0.000121239208 0.00915879  0.00031637  0.0030147 0.0000
 19  -1529.8338032639  -0.000124147203 0.00722772  0.00025013  0.0028147 0.0000
               *** Restarting incremental Fock matrix formation ***
                                   *** Resetting DIIS ***
 20  -1529.8338886759  -0.000085412054 0.00786013  0.00032728  0.0026659 0.0000
 21  -1529.8339653000  -0.000076624134 0.00807414  0.00028481  0.0032215 0.0000

 WARNING: the maximum gradient error descreased on average only by a factor   1.1
          during the last 20 iterations

                      *** Initiating the TRAH-SCF procedure ***


TRAH GRID
---------

General Integration Accuracy     IntAcc      ... 3.467
Radial Grid Type                 RadialGrid  ... OptM3 with GC (2021)
Angular Grid (max. ang.)         AngularGrid ... 1 (Lebedev-50)
Angular grid pruning method      GridPruning ... 4 (adaptive)
Weight generation scheme         WeightScheme... Becke
Basis function cutoff            BFCut       ... 1.0000e-11
Integration weight cutoff        WCut        ... 1.0000e-14
Angular grids for H and He will be reduced by one unit
Partially contracted basis set               ... off
Rotationally invariant grid construction     ... off

Total number of grid points                  ...     6683
Total number of batches                      ...      106
Average number of points per batch           ...       63
Average number of grid points per atom       ...     1671

 --------------------------------------------------------------------------------------------
   Iter.        energy            ||Error||_2        Shift      TRadius  Mac/Mic        Rej.
 --------------------------------------------------------------------------------------------
WARNING: 3 diagonal Hessian elements are negative!
    0      -1529.834078903883     1.516023e-02                     0.400 (TRAH MAcro)   No
WARNING : negative HOMO - LUMO gap : -0.008605
    0     dE    -1.482043e-05     4.724694e-02    -2.9641e-05      0.002 (TRAH MIcro)
    0     dE    -4.227106e-05     8.246960e-02    -8.4520e-05      0.016 (TRAH MIcro)
    0     dE    -2.843027e-04     5.155105e-02    -5.6617e-04      0.066 (TRAH MIcro)
    0     dE    -4.328035e-04     5.447607e-02    -8.5704e-04      0.100 (TRAH MIcro)
    0     dE    -4.965816e-04     5.414753e-02    -9.8001e-04      0.116 (TRAH MIcro)
    0     dE    -5.922075e-04     4.826371e-02    -1.1630e-03      0.136 (TRAH MIcro)
    0     dE    -6.284040e-04     3.777505e-02    -1.2320e-03      0.142 (TRAH MIcro)
    0     dE    -6.372927e-04     3.618862e-02    -1.2489e-03      0.143 (TRAH MIcro)
    0     dE    -6.628842e-04     2.637965e-02    -1.2982e-03      0.146 (TRAH MIcro)
    0     dE    -6.884193e-04     4.989088e-03    -1.3462e-03      0.151 (TRAH MIcro)
    0     dE    -6.895148e-04     1.394685e-03    -1.3483e-03      0.151 (TRAH MIcro)
WARNING: 3 diagonal Hessian elements are negative!
    1      -1529.834753772541     2.809508e-02                     0.480 (TRAH MAcro)   No
WARNING : negative HOMO - LUMO gap : -0.007138
    1     dE    -2.628824e-05     1.917312e-02    -5.2576e-05      0.002 (TRAH MIcro)
    1     dE    -3.404802e-05     1.641786e-02    -6.8094e-05      0.005 (TRAH MIcro)
    1     dE    -3.647419e-05     8.789700e-03    -7.2947e-05      0.004 (TRAH MIcro)
    1     dE    -3.727201e-05     1.049642e-02    -7.4542e-05      0.005 (TRAH MIcro)
    1     dE    -3.824843e-05     7.383377e-03    -7.6494e-05      0.006 (TRAH MIcro)
    1     dE    -4.015651e-05     4.704243e-03    -8.0303e-05      0.011 (TRAH MIcro)
    1     dE    -4.061107e-05     3.678111e-03    -8.1211e-05      0.012 (TRAH MIcro)
    1     dE    -4.116905e-05     2.462921e-03    -8.2323e-05      0.013 (TRAH MIcro)
WARNING: 3 diagonal Hessian elements are negative!
    2      -1529.834795754189     2.502073e-03                     0.576 (TRAH MAcro)   No
WARNING : negative HOMO - LUMO gap : -0.009220
    2     dE    -3.367537e-09     1.062269e-03    -8.4779e-09      0.000 (TRAH MIcro)
    2     dE    -4.331386e-08     1.475253e-03    -8.6628e-08      0.001 (TRAH MIcro)
    2     dE    -9.054080e-08     1.120790e-03    -1.8108e-07      0.001 (TRAH MIcro)
    2     dE    -1.190943e-07     6.111923e-04    -2.3819e-07      0.001 (TRAH MIcro)
    2     dE    -1.912206e-07     1.513415e-03    -3.8244e-07      0.002 (TRAH MIcro)
    2     dE    -3.344175e-07     2.430499e-03    -6.6883e-07      0.002 (TRAH MIcro)
    2     dE    -4.192950e-07     2.470656e-03    -8.3858e-07      0.003 (TRAH MIcro)
    2     dE    -6.845301e-07     1.167014e-03    -1.3690e-06      0.005 (TRAH MIcro)
    2     dE    -7.050379e-07     5.304533e-04    -1.4100e-06      0.005 (TRAH MIcro)
    2     dE    -7.070384e-07     4.206796e-04    -1.4140e-06      0.005 (TRAH MIcro)
    2     dE    -7.090683e-07     3.160717e-04    -1.4181e-06      0.005 (TRAH MIcro)
    2     dE    -7.117093e-07     8.923790e-05    -1.4234e-06      0.005 (TRAH MIcro)
WARNING: 3 diagonal Hessian elements are negative!
    3      -1529.834796471598     9.008511e-05                           (NR   MAcro)
WARNING : negative HOMO - LUMO gap : -0.009268
    3     dE    -1.032689e-10     7.920135e-05                           (NR   MIcro)
    3     dE    -3.171045e-10     2.026364e-05                           (NR   MIcro)
    3     dE    -3.289426e-10     1.555897e-05                           (NR   MIcro)
    3     dE    -3.350813e-10     1.001100e-05                           (NR   MIcro)
    3     dE    -3.415690e-10     5.481027e-06                           (NR   MIcro)
    3     dE    -3.502543e-10     1.293693e-05                           (NR   MIcro)
    3     dE    -3.808202e-10     2.178448e-05                           (NR   MIcro)
    3     dE    -3.852435e-10     1.906792e-05                           (NR   MIcro)
    3     dE    -3.966213e-10     4.017563e-06                           (NR   MIcro)
    3     dE    -3.971599e-10     8.251806e-07                           (NR   MIcro)
WARNING: 3 diagonal Hessian elements are negative!
    4      -1529.834796471996     8.342663e-07                           (NR   MAcro)
WARNING : negative HOMO - LUMO gap : -0.009269

               *****************************************************
               *                     SUCCESS                       *
               *           SCF CONVERGED AFTER  68 CYCLES          *
               *****************************************************


----------------
TOTAL SCF ENERGY
----------------

Total Energy       :        -1529.83479647 Eh          -41628.92119 eV

Components:
Nuclear Repulsion  :          153.48377150 Eh            4176.50575 eV
Electronic Energy  :        -1683.31856797 Eh          -45805.42694 eV
One Electron Energy:        -2427.97161330 Eh          -66068.46645 eV
Two Electron Energy:          744.65304533 Eh           20263.03952 eV

Virial components:
Potential Energy   :        -3058.77669618 Eh          -83233.54541 eV
Kinetic Energy     :         1528.94189971 Eh           41604.62423 eV
Virial Ratio       :            2.00058400


DFT components:
N(Alpha)           :       21.999987920454 electrons
N(Beta)            :       21.999987920454 electrons
N(Total)           :       43.999975840908 electrons
E(X)               :      -69.492729559599 Eh       
E(C)               :       -3.511237961435 Eh       
E(XC)              :      -73.003967521034 Eh       
DFET-embed. en.    :        0.000000000000 Eh       

---------------
SCF CONVERGENCE
---------------

  Last Energy change         ...   -3.9790e-10  Tolerance :   1.0000e-08
  Last Orbital Gradient      ...    8.3427e-07  Tolerance :   1.0000e-05
  Last Orbital Rotation      ...    5.3030e-05

             **** THE GBW FILE WAS UPDATED (CoOOH_COMPLETE.gbw) ****
             **** DENSITY CoOOH_COMPLETE.scfp WAS UPDATED ****
             **** ENERGY FILE WAS UPDATED (CoOOH_COMPLETE.en.tmp) ****
             **** THE GBW FILE WAS UPDATED (CoOOH_COMPLETE.gbw) ****
             **** DENSITY CoOOH_COMPLETE.scfp WAS UPDATED ****
----------------
ORBITAL ENERGIES
----------------

  NO   OCC          E(Eh)            E(eV) 
   0   2.0000    -275.546989     -7498.0148 
   1   2.0000     -32.345466      -880.1649 
   2   2.0000     -28.161448      -766.3120 
   3   2.0000     -28.119722      -765.1765 
   4   2.0000     -28.117865      -765.1260 
   5   2.0000     -18.671895      -508.0881 
   6   2.0000     -18.646999      -507.4106 
   7   2.0000      -3.577057       -97.3367 
   8   2.0000      -2.370940       -64.5166 
   9   2.0000      -2.289464       -62.2995 
  10   2.0000      -2.285196       -62.1833 
  11   2.0000      -0.883913       -24.0525 
  12   2.0000      -0.830056       -22.5870 
  13   2.0000      -0.444852       -12.1050 
  14   2.0000      -0.372670       -10.1409 
  15   2.0000      -0.347780        -9.4636 
  16   2.0000      -0.340586        -9.2678 
  17   2.0000      -0.303401        -8.2560 
  18   2.0000      -0.297965        -8.1080 
  19   2.0000      -0.218401        -5.9430 
  20   2.0000      -0.213142        -5.7999 
  21   2.0000      -0.212624        -5.7858 
  22   0.0000      -0.221894        -6.0380 
  23   0.0000      -0.208438        -5.6719 
  24   0.0000      -0.031963        -0.8698 
  25   0.0000       0.044868         1.2209 
  26   0.0000       0.073133         1.9901 
  27   0.0000       0.073967         2.0127 
  28   0.0000       0.137620         3.7448 
  29   0.0000       0.307911         8.3787 
  30   0.0000       0.533238        14.5101 
  31   0.0000       0.790874        21.5208 
  32   0.0000       0.795321        21.6418 
  33   0.0000       0.842946        22.9377 
  34   0.0000       0.896864        24.4049 
  35   0.0000       0.907756        24.7013 
  36   0.0000       0.934472        25.4283 
  37   0.0000       1.000225        27.2175 
  38   0.0000       1.003774        27.3141 
  39   0.0000       1.056026        28.7359 
  40   0.0000       1.098751        29.8985 
  41   0.0000       1.172340        31.9010 
  42   0.0000       1.365200        37.1490 
  43   0.0000       1.374422        37.3999 
  44   0.0000       1.420214        38.6460 
  45   0.0000       1.599380        43.5214 
  46   0.0000       2.054737        55.9122 
  47   0.0000       2.492841        67.8336 
  48   0.0000       2.500555        68.0436 
  49   0.0000       2.500919        68.0535 
  50   0.0000       2.512006        68.3552 
  51   0.0000       2.609908        71.0192 
  52   0.0000       2.696959        73.3880 
  53   0.0000       2.818905        76.7063 
  54   0.0000       2.845665        77.4345 
  55   0.0000       3.031850        82.5008 
  56   0.0000       3.547929        96.5441 
  57   0.0000       4.691688       127.6673 
  58   0.0000       4.691780       127.6698 
  59   0.0000       4.702359       127.9577 
  60   0.0000       4.704056       128.0039 
  61   0.0000       4.744085       129.0931 
  62   0.0000       4.744092       129.0933 
  63   0.0000       4.810660       130.9047 

                    ********************************
                    * MULLIKEN POPULATION ANALYSIS *
                    ********************************

-----------------------
MULLIKEN ATOMIC CHARGES
-----------------------
   0 Co:    0.478358
   1 O :   -0.320070
   2 O :   -0.393899
   3 H :    0.235610
Sum of atomic charges:   -0.0000000

--------------------------------
MULLIKEN REDUCED ORBITAL CHARGES
--------------------------------
  0 Cos       :     6.839471  s :     6.839471
      pz      :     4.120886  p :    12.329261
      px      :     4.118876
      py      :     4.089499
      dz2     :     1.920781  d :     7.351443
      dxz     :     1.216999
      dyz     :     1.649929
      dx2y2   :     0.909172
      dxy     :     1.654562
      f0      :     0.000116  f :     0.001467
      f+1     :     0.000256
      f-1     :     0.000106
      f+2     :     0.000038
      f-2     :     0.000147
      f+3     :     0.000233
      f-3     :     0.000571
  1 O s       :     3.931298  s :     3.931298
      pz      :     1.374954  p :     4.380909
      px      :     1.635031
      py      :     1.370924
      dz2     :     0.000956  d :     0.007863
      dxz     :     0.001519
      dyz     :     0.000644
      dx2y2   :     0.002253
      dxy     :     0.002491
  2 O s       :     3.798414  s :     3.798414
      pz      :     1.618598  p :     4.588335
      px      :     1.447137
      py      :     1.522600
      dz2     :     0.001222  d :     0.007150
      dxz     :     0.000108
      dyz     :     0.001017
      dx2y2   :     0.001114
      dxy     :     0.003688
  3 H s       :     0.700723  s :     0.700723
      pz      :     0.015045  p :     0.063666
      px      :     0.022935
      py      :     0.025686


                     *******************************
                     * LOEWDIN POPULATION ANALYSIS *
                     *******************************

----------------------
LOEWDIN ATOMIC CHARGES
----------------------
   0 Co:    0.276062
   1 O :   -0.166652
   2 O :   -0.214616
   3 H :    0.105205

-------------------------------
LOEWDIN REDUCED ORBITAL CHARGES
-------------------------------
  0 Cos       :     6.749939  s :     6.749939
      pz      :     4.131256  p :    12.507657
      px      :     4.231936
      py      :     4.144466
      dz2     :     1.941039  d :     7.464239
      dxz     :     1.227879
      dyz     :     1.654456
      dx2y2   :     0.928031
      dxy     :     1.712834
      f0      :     0.000148  f :     0.002103
      f+1     :     0.000393
      f-1     :     0.000159
      f+2     :     0.000048
      f-2     :     0.000189
      f+3     :     0.000275
      f-3     :     0.000890
  1 O s       :     3.748006  s :     3.748006
      pz      :     1.359141  p :     4.407373
      px      :     1.674829
      py      :     1.373403
      dz2     :     0.001779  d :     0.011274
      dxz     :     0.001566
      dyz     :     0.000694
      dx2y2   :     0.002850
      dxy     :     0.004384
  2 O s       :     3.562449  s :     3.562449
      pz      :     1.584865  p :     4.641070
      px      :     1.497431
      py      :     1.558774
      dz2     :     0.002320  d :     0.011097
      dxz     :     0.000258
      dyz     :     0.000623
      dx2y2   :     0.000792
      dxy     :     0.007103
  3 H s       :     0.718712  s :     0.718712
      pz      :     0.038875  p :     0.176083
      px      :     0.066300
      py      :     0.070907


                      *****************************
                      * MAYER POPULATION ANALYSIS *
                      *****************************

  NA   - Mulliken gross atomic population
  ZA   - Total nuclear charge
  QA   - Mulliken gross atomic charge
  VA   - Mayer's total valence
  BVA  - Mayer's bonded valence
  FA   - Mayer's free valence

  ATOM       NA         ZA         QA         VA         BVA        FA
  0 Co    26.5216    27.0000     0.4784     3.3178     3.3178    -0.0000
  1 O      8.3201     8.0000    -0.3201     2.3398     2.3398     0.0000
  2 O      8.3939     8.0000    -0.3939     2.2813     2.2813     0.0000
  3 H      0.7644     1.0000     0.2356     0.9642     0.9642     0.0000

  Mayer bond orders larger than 0.100000
B(  0-Co,  1-O ) :   2.1287 B(  0-Co,  2-O ) :   1.1603 B(  1-O ,  2-O ) :   0.1984 
B(  2-O ,  3-H ) :   0.9226 

-------
TIMINGS
-------

Total SCF time: 0 days 0 hours 0 min 3 sec 

Total time                  ....       3.491 sec
Sum of individual times     ....       2.110 sec  ( 60.4%)

Fock matrix formation       ....       1.634 sec  ( 46.8%)
  Split-RI-J                ....       0.542 sec  ( 33.2% of F)
  XC integration            ....       0.721 sec  ( 44.1% of F)
    Basis function eval.    ....       0.082 sec  ( 11.4% of XC)
    Density eval.           ....       0.072 sec  ( 10.0% of XC)
    XC-Functional eval.     ....       0.026 sec  (  3.6% of XC)
    XC-Potential eval.      ....       0.051 sec  (  7.1% of XC)
Diagonalization             ....       0.093 sec  (  2.7%)
Density matrix formation    ....       0.008 sec  (  0.2%)
Population analysis         ....       0.015 sec  (  0.4%)
Initial guess               ....       0.018 sec  (  0.5%)
Orbital Transformation      ....       0.050 sec  (  1.4%)
Orbital Orthonormalization  ....       0.000 sec  (  0.0%)
DIIS solution               ....       0.144 sec  (  4.1%)
Grid generation             ....       0.147 sec  (  4.2%)

Maximum memory used throughout the entire SCF-calculation: 9.5 MB

-------------------------   --------------------
FINAL SINGLE POINT ENERGY     -1529.834796471996
-------------------------   --------------------



           ************************************************************
           *        Program running with 5 parallel MPI-processes     *
           *              working on a common directory               *
           ************************************************************
------------------------------------------------------------------------------
                         ORCA SCF GRADIENT CALCULATION
------------------------------------------------------------------------------

Gradient of the Kohn-Sham DFT energy:
Kohn-Sham wavefunction type      ... RKS
Hartree-Fock exchange scaling    ...    0.000
Number of operators              ...    1
Number of atoms                  ...    4
Basis set dimensions             ...   64
Integral neglect threshold       ... 2.5e-11
Integral primitive cutoff        ... 2.5e-12
SHARK Integral package           ... ON

Nuc. rep. gradient       (SHARK) ... done (  0.0 sec)
HCore & Overlap gradient (SHARK) ... done (  0.0 sec)
RI-J gradient            (SHARK) ... done (  0.1 sec)
Exchange-correlation gradient    ... done

------------------
CARTESIAN GRADIENT
------------------

   1   Co  :    0.019790718   -0.005524123    0.000000071
   2   O   :   -0.064570040   -0.032959072   -0.000000063
   3   O   :    0.046380170    0.048525421   -0.000000016
   4   H   :   -0.001600847   -0.010042226    0.000000008

Difference to translation invariance:
           :    0.0000000000   -0.0000000001    0.0000000000

Difference to rotation invariance:
           :    0.0000000157   -0.0000000309   -0.0014270863

Norm of the cartesian gradient     ...    0.1014249708
RMS gradient                       ...    0.0292788671
MAX gradient                       ...    0.0645700403

-------
TIMINGS
-------

Total SCF gradient time            ...        0.160 sec

One electron gradient       ....       0.003 sec  (  1.9%)
RI-J Coulomb gradient       ....       0.086 sec  ( 53.8%)
XC gradient                 ....       0.034 sec  ( 21.3%)

Maximum memory used throughout the entire SCFGRAD-calculation: 6.8 MB
------------------------------------------------------------------------------
                         ORCA GEOMETRY RELAXATION STEP
------------------------------------------------------------------------------

Reading the OPT-File                    .... done
Getting information on internals        .... done
Copying old internal coords+grads       .... done
Making the new internal coordinates     .... (new redundants).... done
Validating the new internal coordinates .... (new redundants).... done
Calculating the B-matrix                .... done
Calculating the G,G- and P matrices     .... done
Transforming gradient to internals      .... done
Projecting the internal gradient        .... done
Number of atoms                         ....   4
Number of internal coordinates          ....   6
Current Energy                          .... -1529.834796472 Eh
Current gradient norm                   ....     0.101424971 Eh/bohr
Maximum allowed component of the step   ....  0.300
Current trust radius                    ....  0.300
Evaluating the initial hessian          ....  (Almloef) done
Projecting the Hessian                  .... done
Forming the augmented Hessian           .... done
Diagonalizing the augmented Hessian     .... done
Last element of RFO vector              ....  0.997253425
Lowest eigenvalues of augmented Hessian:
 -0.006317242  0.451503597  0.465320289  0.785620019  0.786001771
Length of the computed step             ....  0.074268867
The final length of the internal step   ....  0.074268867
Converting the step to cartesian space:
 Initial RMS(Int)=    0.0303201381
Transforming coordinates:
 Iter   0:  RMS(Cart)=    0.0195094915 RMS(Int)=    0.0302867046
 Iter   1:  RMS(Cart)=    0.0002502567 RMS(Int)=    0.0002925308
 Iter   2:  RMS(Cart)=    0.0000032270 RMS(Int)=    0.0000048697
 Iter   3:  RMS(Cart)=    0.0000000731 RMS(Int)=    0.0000000950
done
Storing new coordinates                 .... done

                                .--------------------.
          ----------------------|Geometry convergence|-------------------------
          Item                value                   Tolerance       Converged
          ---------------------------------------------------------------------
          RMS gradient        0.0391695838            0.0005000000      NO
          MAX gradient        0.0722804645            0.0020000000      NO
          RMS step            0.0303201381            0.0070000000      NO
          MAX step            0.0523275982            0.0100000000      NO
          ........................................................
          Max(Bonds)      0.0277      Max(Angles)    1.94
          Max(Dihed)        0.00      Max(Improp)    0.00
          ---------------------------------------------------------------------

The optimization has not yet converged - more geometry cycles are needed


    ---------------------------------------------------------------------------
                         Redundant Internal Coordinates
                            (Angstroem and degrees)

        Definition                    Value    dE/dq     Step     New-Value
    ----------------------------------------------------------------------------
     1. B(O   1,Co  0)                1.6378  0.072280 -0.0167    1.6211   
     2. B(O   2,Co  0)                1.8339  0.058345 -0.0277    1.8062   
     3. B(H   3,O   2)                0.9903  0.005708 -0.0064    0.9839   
     4. L(O   1,Co  0,O   2,H   3, 2) 180.00 -0.000000    0.00    180.00   
     5. L(O   1,Co  0,O   2,H   3, 1) 179.98  0.017467   -1.26    178.72   
     6. A(Co  0,O   2,H   3)          104.49 -0.015466    1.94    106.43   
    ----------------------------------------------------------------------------

         *************************************************************
         *                GEOMETRY OPTIMIZATION CYCLE   2            *
         *************************************************************
---------------------------------
CARTESIAN COORDINATES (ANGSTROEM)
---------------------------------
  Co    -1.673956    2.469905    0.000000
  O     -3.044540    1.604230   -0.000001
  O     -0.125680    3.400057   -0.000000
  H      0.598837    2.734437   -0.000000

----------------------------
CARTESIAN COORDINATES (A.U.)
----------------------------
  NO LB      ZA    FRAG     MASS         X           Y           Z
   0 Co   27.0000    0    58.930   -3.163318    4.667444    0.000000
   1 O     8.0000    0    15.999   -5.753346    3.031555   -0.000002
   2 O     8.0000    0    15.999   -0.237500    6.425177   -0.000000
   3 H     1.0000    0     1.008    1.131637    5.167338   -0.000000

--------------------------------
INTERNAL COORDINATES (ANGSTROEM)
--------------------------------
 Co     0   0   0     0.000000000000     0.00000000     0.00000000
 O      1   0   0     1.621078098646     0.00000000     0.00000000
 O      1   2   0     1.806195451359   178.71909791     0.00000000
 H      3   1   2     0.983856609550   106.42997290     0.00000000

---------------------------
INTERNAL COORDINATES (A.U.)
---------------------------
 Co     0   0   0     0.000000000000     0.00000000     0.00000000
 O      1   0   0     3.063393648139     0.00000000     0.00000000
 O      1   2   0     3.413214747403   178.71909791     0.00000000
 H      3   1   2     1.859219547098   106.42997290     0.00000000



           ************************************************************
           *        Program running with 5 parallel MPI-processes     *
           *              working on a common directory               *
           ************************************************************
------------------------------------------------------------------------------
                   ___                                                        
                  /   \      - P O W E R E D   B Y -                         
                 /     \                                                     
                 |  |  |   _    _      __       _____    __    __             
                 |  |  |  | |  | |    /  \     |  _  \  |  |  /  |          
                  \  \/   | |  | |   /    \    | | | |  |  | /  /          
                 / \  \   | |__| |  /  /\  \   | |_| |  |  |/  /          
                |  |  |   |  __  | /  /__\  \  |    /   |      \           
                |  |  |   | |  | | |   __   |  |    \   |  |\   \          
                \     /   | |  | | |  |  |  |  | |\  \  |  | \   \       
                 \___/    |_|  |_| |__|  |__|  |_| \__\ |__|  \__/        
                                                                              
                      - O R C A' S   B I G   F R I E N D -                    
                                      &                                       
                       - I N T E G R A L  F E E D E R -                       
                                                                              
 v1 FN, 2020, v2 2021                                                         
------------------------------------------------------------------------------


Reading SHARK input file CoOOH_COMPLETE.SHARKINP.tmp ... ok
----------------------
SHARK INTEGRAL PACKAGE
----------------------

Number of atoms                             ...      4
Number of basis functions                   ...     64
Number of shells                            ...     26
Maximum angular momentum                    ...      3
Integral batch strategy                     ... SHARK/LIBINT Hybrid
RI-J (if used) integral strategy            ... SPLIT-RIJ (Revised 2003 algorithm where possible)
Printlevel                                  ...      1
Contraction scheme used                     ... SEGMENTED contraction
Coulomb Range Separation                    ... NOT USED
Exchange Range Separation                   ... NOT USED
Finite Nucleus Model                        ... NOT USED
Auxiliary Coulomb fitting basis             ... AVAILABLE
   # of basis functions in Aux-J            ...    198
   # of shells in Aux-J                     ...     58
   Maximum angular momentum in Aux-J        ...      4
Auxiliary J/K fitting basis                 ... NOT available
Auxiliary Correlation fitting basis         ... NOT available
Auxiliary 'external' fitting basis          ... NOT available
Integral threshold                          ...     2.500000e-11
Primitive cut-off                           ...     2.500000e-12
Primitive pair pre-selection threshold      ...     2.500000e-12

Calculating pre-screening integrals         ... done (  0.0 sec) Dimension = 26
Organizing shell pair data                  ... done (  0.0 sec)
Shell pair information
Total number of shell pairs                 ...       351
Shell pairs after pre-screening             ...       337
Total number of primitive shell pairs       ...      1780
Primitive shell pairs kept                  ...      1379
          la=0 lb=0:     84 shell pairs
          la=1 lb=0:     99 shell pairs
          la=1 lb=1:     36 shell pairs
          la=2 lb=0:     50 shell pairs
          la=2 lb=1:     32 shell pairs
          la=2 lb=2:     10 shell pairs
          la=3 lb=0:     13 shell pairs
          la=3 lb=1:      8 shell pairs
          la=3 lb=2:      4 shell pairs
          la=3 lb=3:      1 shell pairs

Calculating one electron integrals          ... done (  0.0 sec)
Calculating RI/J V-Matrix + Cholesky decomp.... done (  0.0 sec)
Calculating Nuclear repulsion               ... done (  0.0 sec) ENN=    155.332768556503 Eh

SHARK setup successfully completed in   0.1 seconds

Maximum memory used throughout the entire GTOINT-calculation: 14.1 MB


           ************************************************************
           *        Program running with 5 parallel MPI-processes     *
           *              working on a common directory               *
           ************************************************************

Diagonalization of the overlap matrix:
Smallest eigenvalue                        ... 2.314e-02
Time for diagonalization                   ...    0.001 sec
Threshold for overlap eigenvalues          ... 1.000e-08
Number of eigenvalues below threshold      ... 0
Time for construction of square roots      ...    0.007 sec
Total time needed                          ...    0.008 sec

-------------------
DFT GRID GENERATION
-------------------

General Integration Accuracy     IntAcc      ... 4.388
Radial Grid Type                 RadialGrid  ... OptM3 with GC (2021)
Angular Grid (max. ang.)         AngularGrid ... 4 (Lebedev-302)
Angular grid pruning method      GridPruning ... 4 (adaptive)
Weight generation scheme         WeightScheme... Becke
Basis function cutoff            BFCut       ... 1.0000e-11
Integration weight cutoff        WCut        ... 1.0000e-14
Angular grids for H and He will be reduced by one unit
Partially contracted basis set               ... off
Rotationally invariant grid construction     ... off

Total number of grid points                  ...    26846
Total number of batches                      ...      421
Average number of points per batch           ...       63
Average number of grid points per atom       ...     6712
Time for grid setup =    0.125 sec

--------------
SCF ITERATIONS
--------------
ITER       Energy         Delta-E        Max-DP      RMS-DP      [F,P]     Damp
               ***  Starting incremental Fock matrix formation  ***
  0  -1529.8404060517   0.000000000000 0.00227990  0.00018166  0.0068748 0.7000
  1  -1529.8405087877  -0.000102736053 0.00217219  0.00017325  0.0032699 0.7000
                               ***Turning on DIIS***
  2  -1529.8405925976  -0.000083809909 0.00593696  0.00048895  0.0024400 0.0000
  3  -1529.8407943448  -0.000201747148 0.00366803  0.00015032  0.0023444 0.0000
  4  -1529.8407523177   0.000042027033 0.00139454  0.00007516  0.0073106 0.0000
  5  -1529.8408003036  -0.000047985840 0.00077688  0.00005066  0.0027068 0.0000
  6  -1529.8408111441  -0.000010840465 0.00065842  0.00003471  0.0011509 0.0000
  7  -1529.8408132282  -0.000002084151 1.15955978  0.03020360  0.0004901 0.0000
  8  -1529.5398090358   0.301004192372 0.00000691  0.00000029  0.3561978 0.7000
  9  -1529.5398193974  -0.000010361552 0.00000836  0.00000035  0.3561881 0.7000
 10  -1529.5398324047  -0.000013007322 0.00003428  0.00000155  0.3561762 0.7000
 11  -1529.5398549017  -0.000022497034 0.00015406  0.00000558  0.3561464 0.7000
 12  -1529.5398179775   0.000036924247 0.42218511  0.01192466  0.3561856 0.7000
 13  -1529.5353478493   0.004470128200 0.24335698  0.00667369  0.2983020 0.7000
 14  -1529.2832598064   0.252088042901 0.16033564  0.00496941  0.5529720 0.7000
 15  -1529.2435078605   0.039751945839 0.12985627  0.00411312  0.6191600 0.7000
 16  -1529.3440990777  -0.100591217179 0.11776455  0.00339337  0.5802629 0.7000
 17  -1529.4721959164  -0.128096838681 0.13376879  0.00369308  0.4977068 0.7000
 18  -1529.6568946535  -0.184698737049 0.11091495  0.00445349  0.3143343 0.7000
 19  -1529.7767385419  -0.119843888398 0.07732151  0.00284984  0.1134331 0.7000
               *** Restarting incremental Fock matrix formation ***
                                   *** Resetting DIIS ***
 20  -1529.7980254955  -0.021286953642 0.16953167  0.00545364  0.0818766 0.0000
 21  -1529.8355140367  -0.037488541188 0.05103124  0.00240504  0.0475840 0.0000
 22  -1529.8325134254   0.003000611320 0.01745491  0.00093412  0.0889265 0.0000
 23  -1529.8389033594  -0.006389934056 0.01134968  0.00064106  0.0349963 0.0000
 24  -1529.8401345456  -0.001231186182 0.00966248  0.00036734  0.0167535 0.0000
 25  -1529.8405660388  -0.000431493172 0.00364776  0.00017093  0.0022802 0.0000
 26  -1529.8406046051  -0.000038566274 0.00363333  0.00014775  0.0015797 0.0000
 27  -1529.8406296333  -0.000025028228 0.00329602  0.00013304  0.0010142 0.0000
 28  -1529.8406491643  -0.000019531050 1.16069437  0.03023143  0.0009648 0.0000
 29  -1529.5506279821   0.290021182243 0.00000841  0.00000033  0.3391400 0.7000

 WARNING: the maximum gradient error descreased on average only by a factor   1.0
          during the last 20 iterations

                      *** Initiating the TRAH-SCF procedure ***


TRAH GRID
---------

General Integration Accuracy     IntAcc      ... 3.467
Radial Grid Type                 RadialGrid  ... OptM3 with GC (2021)
Angular Grid (max. ang.)         AngularGrid ... 1 (Lebedev-50)
Angular grid pruning method      GridPruning ... 4 (adaptive)
Weight generation scheme         WeightScheme... Becke
Basis function cutoff            BFCut       ... 1.0000e-11
Integration weight cutoff        WCut        ... 1.0000e-14
Angular grids for H and He will be reduced by one unit
Partially contracted basis set               ... off
Rotationally invariant grid construction     ... off

Total number of grid points                  ...     6683
Total number of batches                      ...      106
Average number of points per batch           ...       63
Average number of grid points per atom       ...     1671

 --------------------------------------------------------------------------------------------
   Iter.        energy            ||Error||_2        Shift      TRadius  Mac/Mic        Rej.
 --------------------------------------------------------------------------------------------
WARNING: 14 diagonal Hessian elements are negative!
    0      -1529.550582579516     1.886737e+00                     0.400 (TRAH MAcro)   No
WARNING : negative HOMO - LUMO gap : -0.540156
    0     dE    -1.063198e-01     1.858643e+00    -2.1001e-01      0.112 (TRAH MIcro)
    0     dE    -1.777566e-01     6.727427e-01    -3.3504e-01      0.247 (TRAH MIcro)
    0     dE    -2.565525e-01     1.378609e+00    -8.4710e-01      0.392 (TRAH MIcro)
    0     dE    -2.147580e-01     4.683922e-01    -2.4462e+00      0.247 (TRAH MIcro)
    0     dE    -2.201856e-01     2.121082e-01    -2.4808e+00      0.250 (TRAH MIcro)
    0     dE    -2.200943e-01     1.282829e-01    -2.4852e+00      0.250 (TRAH MIcro)
    0     dE    -2.190776e-01     6.144389e-02    -2.4865e+00      0.248 (TRAH MIcro)
    0     dE    -2.194066e-01     1.883044e-02    -2.4868e+00      0.248 (TRAH MIcro)
    0     dE    -2.197841e-01     2.804081e-03    -2.4868e+00      0.249 (TRAH MIcro)
WARNING: 7 diagonal Hessian elements are negative!
    1      -1529.725661657737     2.279781e-01                     0.480 (TRAH MAcro)   No
WARNING : negative HOMO - LUMO gap : -0.117460
    1     dE    -3.380221e-03     4.282985e-01    -6.7541e-03      0.031 (TRAH MIcro)
    1     dE    -5.581090e-03     3.676902e-01    -1.1113e-02      0.066 (TRAH MIcro)
    1     dE    -1.044863e-02     2.327621e-01    -2.0480e-02      0.143 (TRAH MIcro)
    1     dE    -1.507734e-02     2.692597e-01    -2.8924e-02      0.206 (TRAH MIcro)
    1     dE    -2.375480e-02     9.549388e-01    -4.1889e-02      0.366 (TRAH MIcro)
    1     dE    -3.998745e-02     6.021668e-01    -1.4624e-01      0.480 (TRAH MIcro)
    1     dE    -4.389994e-02     6.941697e-01    -1.9759e-01      0.480 (TRAH MIcro)
    1     dE    -5.136037e-02     1.954770e-01    -3.0731e-01      0.478 (TRAH MIcro)
    1     dE    -5.272992e-02     5.269967e-02    -3.2127e-01      0.480 (TRAH MIcro)
    1     dE    -5.299697e-02     3.786301e-02    -3.2493e-01      0.480 (TRAH MIcro)
    1     dE    -1.686655e-02     6.915669e-02    -5.0789e-01      0.158 (TRAH MIcro)
    1     dE    -1.675660e-02     7.379481e-03    -5.1084e-01      0.155 (TRAH MIcro)
WARNING: 5 diagonal Hessian elements are negative!
    2      -1529.742125021901     7.688516e-02                     0.576 (TRAH MAcro)   No
WARNING : negative HOMO - LUMO gap : -0.098751
    2     dE    -6.886082e-04     1.022913e+00    -1.3766e-03      0.020 (TRAH MIcro)
    2     dE    -3.452370e-03     1.129718e+00    -6.8370e-03      0.100 (TRAH MIcro)
    2     dE    -1.406473e-02     8.659631e-01    -2.4968e-02      0.356 (TRAH MIcro)
    2     dE    -2.770333e-02     1.319247e+00    -4.7046e-02      0.576 (TRAH MIcro)
    2     dE    -4.231053e-02     8.553661e-01    -1.4809e-01      0.576 (TRAH MIcro)
    2     dE    -4.676445e-02     6.282257e-01    -1.7882e-01      0.576 (TRAH MIcro)
    2     dE    -4.592188e-02     2.505065e-01    -2.3486e-01      0.526 (TRAH MIcro)
    2     dE    -5.518778e-02     1.232710e-01    -2.5749e-01      0.576 (TRAH MIcro)
    2     dE    -5.541188e-02     1.809002e-02    -2.5938e-01      0.576 (TRAH MIcro)
    2     dE    -5.541808e-02     2.050219e-03    -2.5952e-01      0.576 (TRAH MIcro)
WARNING: 6 diagonal Hessian elements are negative!
    3      -1529.785065116660     3.337619e-01                     0.691 (TRAH MAcro)   No
WARNING : negative HOMO - LUMO gap : -0.057981
    3     dE    -4.741946e-03     1.529777e+00    -9.4646e-03      0.045 (TRAH MIcro)
    3     dE    -8.932050e-03     1.711276e+00    -1.7710e-02      0.093 (TRAH MIcro)
    3     dE    -4.631493e-02     1.737495e+00    -7.1091e-02      0.550 (TRAH MIcro)
    3     dE    -7.899309e-02     6.236451e-01    -1.5680e-01      0.691 (TRAH MIcro)
    3     dE    -8.532147e-02     2.031726e-01    -1.8632e-01      0.691 (TRAH MIcro)
    3     dE    -8.722061e-02     5.385027e-02    -1.9607e-01      0.691 (TRAH MIcro)
    3     dE    -8.743419e-02     3.193170e-02    -1.9724e-01      0.691 (TRAH MIcro)
    3     dE    -8.755102e-02     1.521306e-02    -1.9794e-01      0.691 (TRAH MIcro)
    3     dE    -8.756808e-02     5.655586e-03    -1.9807e-01      0.691 (TRAH MIcro)
WARNING: 5 diagonal Hessian elements are negative!
    4      -1529.803131318086     8.763640e-01                     0.484 (TRAH MAcro)   No
WARNING : negative HOMO - LUMO gap : -0.072712
    4     dE    -2.103094e-02     1.042875e+00    -4.1953e-02      0.051 (TRAH MIcro)
    4     dE    -2.937919e-02     6.115160e-01    -5.8231e-02      0.095 (TRAH MIcro)
    4     dE    -3.356479e-02     6.676363e-01    -6.5576e-02      0.154 (TRAH MIcro)
    4     dE    -3.808046e-02     9.404822e-01    -7.2184e-02      0.235 (TRAH MIcro)
    4     dE    -6.014813e-02     8.709108e-01    -1.5721e-01      0.484 (TRAH MIcro)
    4     dE    -5.966883e-02     7.381866e-02    -2.9011e-01      0.394 (TRAH MIcro)
    4     dE    -6.198808e-02     3.702293e-02    -2.9156e-01      0.411 (TRAH MIcro)
    4     dE    -6.295958e-02     2.211123e-02    -2.9196e-01      0.418 (TRAH MIcro)
    4     dE    -6.352012e-02     1.132002e-02    -2.9218e-01      0.423 (TRAH MIcro)
    4     dE    -6.365596e-02     4.183712e-03    -2.9223e-01      0.424 (TRAH MIcro)
WARNING: 6 diagonal Hessian elements are negative!
    5      -1529.807499112687     6.755004e-01                     0.339 (TRAH MAcro)   No
WARNING : negative HOMO - LUMO gap : -0.083361
    5     dE    -1.529983e-02     3.187401e-01    -3.0537e-02      0.045 (TRAH MIcro)
    5     dE    -2.404349e-02     1.671631e-01    -4.7499e-02      0.111 (TRAH MIcro)
    5     dE    -2.717192e-02     1.337774e-01    -5.3166e-02      0.149 (TRAH MIcro)
    5     dE    -2.949961e-02     1.022167e-01    -5.7067e-02      0.184 (TRAH MIcro)
    5     dE    -3.869690e-02     2.442645e-01    -9.3889e-02      0.339 (TRAH MIcro)
    5     dE    -4.040019e-02     8.179031e-02    -2.3490e-01      0.296 (TRAH MIcro)
    5     dE    -4.280651e-02     3.277379e-02    -2.3790e-01      0.322 (TRAH MIcro)
    5     dE    -4.452397e-02     3.734748e-02    -2.4286e-01      0.339 (TRAH MIcro)
    5     dE    -4.461248e-02     9.591633e-03    -2.4596e-01      0.339 (TRAH MIcro)
WARNING: 1 diagonal Hessian elements are negative!
    6      -1529.836174408126     2.343408e-01                     0.339 (TRAH MAcro)   No
WARNING : negative HOMO - LUMO gap : -0.007083
    6     dE    -1.968907e-03     2.296472e-01    -3.9366e-03      0.017 (TRAH MIcro)
    6     dE    -2.680122e-03     2.265071e-01    -5.3411e-03      0.060 (TRAH MIcro)
    6     dE    -3.095757e-03     1.728798e-01    -6.1509e-03      0.081 (TRAH MIcro)
    6     dE    -3.275774e-03     1.607053e-01    -6.5037e-03      0.086 (TRAH MIcro)
    6     dE    -3.420463e-03     1.808242e-01    -6.7832e-03      0.092 (TRAH MIcro)
    6     dE    -3.640965e-03     1.504186e-01    -7.2128e-03      0.098 (TRAH MIcro)
    6     dE    -4.205105e-03     9.853032e-02    -8.1716e-03      0.171 (TRAH MIcro)
    6     dE    -4.602954e-03     3.194217e-02    -8.7502e-03      0.228 (TRAH MIcro)
    6     dE    -4.654910e-03     1.894766e-02    -8.8225e-03      0.235 (TRAH MIcro)
    6     dE    -4.666229e-03     3.535093e-03    -8.8397e-03      0.236 (TRAH MIcro)
WARNING: 3 diagonal Hessian elements are negative!
    7      -1529.840041970499     6.548014e-02                     0.406 (TRAH MAcro)   No
WARNING : negative HOMO - LUMO gap : -0.010000
    7     dE    -1.517133e-04     1.871372e-01    -3.0342e-04      0.005 (TRAH MIcro)
    7     dE    -3.633359e-04     1.717449e-01    -7.2575e-04      0.036 (TRAH MIcro)
    7     dE    -5.751106e-04     8.218950e-02    -1.1486e-03      0.037 (TRAH MIcro)
    7     dE    -6.042988e-04     7.951729e-02    -1.2066e-03      0.040 (TRAH MIcro)
    7     dE    -6.543970e-04     7.069321e-02    -1.3058e-03      0.048 (TRAH MIcro)
    7     dE    -6.874816e-04     5.949895e-02    -1.3707e-03      0.056 (TRAH MIcro)
    7     dE    -7.468258e-04     3.977930e-02    -1.4848e-03      0.077 (TRAH MIcro)
    7     dE    -7.730392e-04     5.902451e-02    -1.5344e-03      0.087 (TRAH MIcro)
    7     dE    -7.977510e-04     7.650167e-03    -1.5805e-03      0.098 (TRAH MIcro)
    7     dE    -8.009956e-04     4.690112e-03    -1.5865e-03      0.099 (TRAH MIcro)
WARNING: 3 diagonal Hessian elements are negative!
    8      -1529.840796417995     1.732581e-02                     0.488 (TRAH MAcro)   No
WARNING : negative HOMO - LUMO gap : -0.006003
    8     dE    -2.265777e-06     5.816538e-02    -4.5316e-06      0.001 (TRAH MIcro)
    8     dE    -1.020707e-05     1.759367e-02    -2.0414e-05      0.002 (TRAH MIcro)
    8     dE    -1.176254e-05     1.812476e-02    -2.3525e-05      0.003 (TRAH MIcro)
    8     dE    -1.341961e-05     1.529726e-02    -2.6839e-05      0.004 (TRAH MIcro)
    8     dE    -1.449584e-05     9.816233e-03    -2.8991e-05      0.005 (TRAH MIcro)
    8     dE    -1.527543e-05     1.209018e-02    -3.0549e-05      0.008 (TRAH MIcro)
    8     dE    -1.742998e-05     3.760730e-03    -3.4855e-05      0.012 (TRAH MIcro)
    8     dE    -1.792112e-05     6.235209e-04    -3.5835e-05      0.014 (TRAH MIcro)
WARNING: 3 diagonal Hessian elements are negative!
    9      -1529.840814764037     7.713314e-04                           (NR   MAcro)
WARNING : negative HOMO - LUMO gap : -0.007067
    9     dE    -1.358275e-08     5.973384e-04                           (NR   MIcro)
    9     dE    -2.379379e-08     3.810037e-04                           (NR   MIcro)
    9     dE    -3.363619e-08     1.580911e-04                           (NR   MIcro)
    9     dE    -3.705699e-08     2.040585e-04                           (NR   MIcro)
    9     dE    -4.199110e-08     2.760594e-04                           (NR   MIcro)
    9     dE    -5.623873e-08     3.406611e-04                           (NR   MIcro)
    9     dE    -6.015274e-08     3.043619e-04                           (NR   MIcro)
    9     dE    -6.556206e-08     8.109486e-05                           (NR   MIcro)
    9     dE    -6.597632e-08     2.524238e-05                           (NR   MIcro)
    9     dE    -6.606917e-08     2.101784e-05                           (NR   MIcro)
    9     dE    -6.655244e-08     6.718415e-05                           (NR   MIcro)
    9     dE    -6.679372e-08     8.095667e-06                           (NR   MIcro)
    9     dE    -6.679716e-08     1.217277e-06                           (NR   MIcro)
WARNING: 3 diagonal Hessian elements are negative!
   10      -1529.840814830301     5.248011e-06                           (NR   MAcro)
WARNING : negative HOMO - LUMO gap : -0.007095
   10     dE    -1.025983e-12     4.899771e-06                           (NR   MIcro)
   10     dE    -2.479825e-12     3.593007e-06                           (NR   MIcro)
   10     dE    -3.315038e-12     1.454947e-06                           (NR   MIcro)
   10     dE    -3.807324e-12     2.486623e-06                           (NR   MIcro)
   10     dE    -4.462390e-12     3.296433e-06                           (NR   MIcro)
   10     dE    -6.534503e-12     3.010010e-06                           (NR   MIcro)
   10     dE    -6.842821e-12     2.141111e-06                           (NR   MIcro)
   10     dE    -7.186529e-12     5.563356e-07                           (NR   MIcro)
WARNING: 3 diagonal Hessian elements are negative!
   11      -1529.840814830308     5.612501e-07                           (NR   MAcro)
WARNING : negative HOMO - LUMO gap : -0.007095

               *****************************************************
               *                     SUCCESS                       *
               *           SCF CONVERGED AFTER 150 CYCLES          *
               *****************************************************

Total Energy       :        -1529.84081483 Eh          -41629.08495 eV
  Last Energy change         ...   -6.8212e-12  Tolerance :   1.0000e-08
  Last Orbital Gradient      ...    5.6125e-07  Tolerance :   1.0000e-05
  Last Orbital Rotation      ...    1.3331e-05

             **** THE GBW FILE WAS UPDATED (CoOOH_COMPLETE.gbw) ****
             **** DENSITY CoOOH_COMPLETE.scfp WAS UPDATED ****
             **** ENERGY FILE WAS UPDATED (CoOOH_COMPLETE.en.tmp) ****
             **** THE GBW FILE WAS UPDATED (CoOOH_COMPLETE.gbw) ****
             **** DENSITY CoOOH_COMPLETE.scfp WAS UPDATED ****
Total SCF time: 0 days 0 hours 0 min 6 sec 

Maximum memory used throughout the entire SCF-calculation: 9.5 MB

-------------------------   --------------------
FINAL SINGLE POINT ENERGY     -1529.840814830308
-------------------------   --------------------



           ************************************************************
           *        Program running with 5 parallel MPI-processes     *
           *              working on a common directory               *
           ************************************************************
------------------------------------------------------------------------------
                         ORCA SCF GRADIENT CALCULATION
------------------------------------------------------------------------------

Gradient of the Kohn-Sham DFT energy:
Kohn-Sham wavefunction type      ... RKS
Hartree-Fock exchange scaling    ...    0.000
Number of operators              ...    1
Number of atoms                  ...    4
Basis set dimensions             ...   64
Integral neglect threshold       ... 2.5e-11
Integral primitive cutoff        ... 2.5e-12
SHARK Integral package           ... ON

Nuc. rep. gradient       (SHARK) ... done (  0.0 sec)
HCore & Overlap gradient (SHARK) ... done (  0.0 sec)
RI-J gradient            (SHARK) ... done (  0.1 sec)
Exchange-correlation gradient    ... done

------------------
CARTESIAN GRADIENT
------------------

   1   Co  :    0.016769335   -0.007567926    0.000000052
   2   O   :   -0.056259741   -0.028047489   -0.000000047
   3   O   :    0.044938847    0.042875959   -0.000000012
   4   H   :   -0.005448442   -0.007260544    0.000000007

Difference to translation invariance:
           :    0.0000000000   -0.0000000002   -0.0000000000

Difference to rotation invariance:
           :    0.0000000057   -0.0000000098   -0.0013942375

Norm of the cartesian gradient     ...    0.0907223954
RMS gradient                       ...    0.0261892997
MAX gradient                       ...    0.0562597409

-------
TIMINGS
-------

Total SCF gradient time            ...        0.158 sec

One electron gradient       ....       0.004 sec  (  2.5%)
RI-J Coulomb gradient       ....       0.086 sec  ( 54.4%)
XC gradient                 ....       0.032 sec  ( 20.3%)

Maximum memory used throughout the entire SCFGRAD-calculation: 7.0 MB
------------------------------------------------------------------------------
                         ORCA GEOMETRY RELAXATION STEP
------------------------------------------------------------------------------

Reading the OPT-File                    .... done
Getting information on internals        .... done
Copying old internal coords+grads       .... done
Making the new internal coordinates     .... (new redundants).... done
Validating the new internal coordinates .... (new redundants).... done
Calculating the B-matrix                .... done
Calculating the G,G- and P matrices     .... done
Transforming gradient to internals      .... done
Projecting the internal gradient        .... done
Number of atoms                         ....   4
Number of internal coordinates          ....   6
Current Energy                          .... -1529.840814830 Eh
Current gradient norm                   ....     0.090722395 Eh/bohr
Maximum allowed component of the step   ....  0.300
Current trust radius                    ....  0.300
Updating the Hessian (BFGS)             .... done
Forming the augmented Hessian           .... done
Diagonalizing the augmented Hessian     .... done
Last element of RFO vector              ....  0.876102079
Lowest eigenvalues of augmented Hessian:
[...]
Density matrix formation    ....       0.001 sec  (  0.1%)
Population analysis         ....       0.021 sec  (  2.2%)
Initial guess               ....       0.002 sec  (  0.2%)
Orbital Transformation      ....       0.000 sec  (  0.0%)
Orbital Orthonormalization  ....       0.001 sec  (  0.1%)
DIIS solution               ....       0.054 sec  (  5.6%)
Grid generation             ....       0.119 sec  ( 12.3%)

Maximum memory used throughout the entire SCF-calculation: 9.5 MB

-------------------------   --------------------
FINAL SINGLE POINT ENERGY     -1529.869879456465
-------------------------   --------------------

                                *** OPTIMIZATION RUN DONE ***

                            ***************************************
                            *     ORCA property calculations      *
                            ***************************************

                                    ---------------------
                                    Active property flags
                                    ---------------------
   (+) Dipole Moment
   (+) Polarizability


------------------------------------------------------------------------------
                       ORCA ELECTRIC PROPERTIES CALCULATION
------------------------------------------------------------------------------

Dipole Moment Calculation                       ... on
Quadrupole Moment Calculation                   ... off
Polarizability Calculation                      ... Analytic (CP-SCF)
GBWName                                         ... CoOOH_COMPLETE.gbw
Electron density                                ... CoOOH_COMPLETE.scfp
The origin for moment calculation is the CENTER OF MASS  = (-3.190613,  4.731688 -0.000000)

-------------
DIPOLE MOMENT
-------------
                                X             Y             Z
Electronic contribution:     -1.42674       0.29148      -0.00000
Nuclear contribution   :      2.67780       0.04756      -0.00000
                        -----------------------------------------
Total Dipole Moment    :      1.25107       0.33904      -0.00000
                        -----------------------------------------
Magnitude (a.u.)       :      1.29619
Magnitude (Debye)      :      3.29466



--------------------
Rotational spectrum 
--------------------
 
Rotational constants in cm-1:     8.145605     0.200954     0.196116 
Rotational constants in MHz : 244199.080001  6024.451714  5879.405330 

 Dipole components along the rotational axes: 
x,y,z [a.u.] :     1.273524     0.241353    -0.000002 
x,y,z [Debye]:     3.237040     0.613472    -0.000004 

 
Transforming and storing MO dipole integrals   ... done

                ... starting polarizability calculation

The origin for moment calculation is the CENTER OF MASS  = (-3.190613,  4.731688 -0.000000)
Opening the Dipole integral file               ... (CoOOH_COMPLETE.dmo.tmp) done
Reading Dipole-MO integrals                    ... done
Solving CP-SCF equations                       ... 

           ************************************************************
           *        Program running with 5 parallel MPI-processes     *
           *              working on a common directory               *
           ************************************************************

------------------------------------------------------------------------------
                           ORCA CP-SCF CALCULATION
------------------------------------------------------------------------------

Input orbitals are from        ... CoOOH_COMPLETE.gbw
Input Perturbation             ... CoOOH_COMPLETE.cpv.tmp
Wavefunction output            ... CoOOH_COMPLETE.cpu.tmp
Perturbation mode              ... Real perturbation (singlet)
Solver                         ... POPLE
Max. number of iterations      ... 64
Convergence tolerance          ... 1.000e-04
Integral handling              ... Direct
DFT GridXC                     ... 1
Number of perturbations        ... 3
Number of operators            ... 1
Orbital ranges used for CP-SCF:
 Operator 0:  Orbitals   0... 21  to  22... 63
Variables per perturbation     ... 924
DFT calculation                         ... on
XC functional terms                     ... on
Exchange functional (SCF)               ... Slater
Exchange functional (CP-SCF)            ... Slater
   X-Alpha parameter    XAlpha (SCF)    ...  0.666667
   X-Alpha parameter    XAlpha (CP-SCF) ...  0.666667
Correlation functional (SCF)            ... VWN-5
Correlation functional (CP-SCF)         ... VWN-5

CP-SCF GRID
-----------

General Integration Accuracy     IntAcc      ... 3.467
Radial Grid Type                 RadialGrid  ... OptM3 with GC (2021)
Angular Grid (max. ang.)         AngularGrid ... 1 (Lebedev-50)
Angular grid pruning method      GridPruning ... 4 (adaptive)
Weight generation scheme         WeightScheme... Becke
Basis function cutoff            BFCut       ... 1.0000e-11
Integration weight cutoff        WCut        ... 1.0000e-14
Angular grids for H and He will be reduced by one unit
Partially contracted basis set               ... off
Rotationally invariant grid construction     ... off

Total number of grid points                  ...     6690
Total number of batches                      ...      107
Average number of points per batch           ...       62
Average number of grid points per atom       ...     1673

Recalculating density on grid  ... done
Calculating the xc-kernel      ... done
Memory available               ... 1020.2 MB
Memory needed per perturbation ...   0.3 MB
Perturbations treated per batch... 3
Number of batches              ... 1
     CP-SCF ITERATION   0:   2.4537e+02 (   0.0 sec   0/  3 done)
     CP-SCF ITERATION   1:   3.4784e+00 (   0.0 sec   0/  3 done)
     CP-SCF ITERATION   2:   2.0771e+00 (   0.0 sec   0/  3 done)
     CP-SCF ITERATION   3:   5.4784e-01 (   0.0 sec   0/  3 done)
     CP-SCF ITERATION   4:   1.5489e-01 (   0.0 sec   0/  3 done)
     CP-SCF ITERATION   5:   5.3227e-02 (   0.0 sec   0/  3 done)
     CP-SCF ITERATION   6:   8.7918e-03 (   0.0 sec   0/  3 done)
     CP-SCF ITERATION   7:   4.8931e-03 (   0.0 sec   0/  3 done)
     CP-SCF ITERATION   8:   1.0191e-03 (   0.0 sec   0/  3 done)
     CP-SCF ITERATION   9:   1.7381e-04 (   0.0 sec   1/  3 done)
     CP-SCF ITERATION  10:   2.1618e-05 (   0.0 sec   3/  3 done)
                    *** THE CP-SCF HAS CONVERGED ***
done
Reading CP-SCF coefficients                    ... done
Doing the polarizability tensor                ... done
Cleaning up                                    ... done

-------------------------
THE POLARIZABILITY TENSOR
-------------------------

The raw cartesian tensor (atomic units):
   42.09480      9.73198     -0.00000  
    9.73198     23.73961      0.00000  
   -0.00000      0.00000     17.57857  
diagonalized tensor: 
   17.57857     19.54037     46.29404  

    0.00000     -0.39618     -0.91817  
   -0.00000      0.91817     -0.39618  
    1.00000      0.00000      0.00000  

Isotropic polarizability :  27.80433


----------------------------------------------------------------------------
                           ORCA NUMERICAL FREQUENCIES
                              (5-process run)
----------------------------------------------------------------------------

Number of atoms                ... 4
Central differences            ... used
Number of displacements        ... 24
Numerical increment            ... 5.000e-03 bohr
IR-spectrum generation         ... on
Raman-spectrum generation      ... on
Polarizability calculation     ... 1
Surface Crossing Hessian       ... off

The output will be reduced. Please look at the following files:
SCF program output             ... >CoOOH_COMPLETE.lastscf
Integral program output        ... >CoOOH_COMPLETE.lastint
Gradient program output        ... >CoOOH_COMPLETE.lastgrad
Dipole moment program output   ... >CoOOH_COMPLETE.lastmom
AutoCI program output          ... >CoOOH_COMPLETE.lastautoci

	<< Calculating on displaced geometry   5 (of  24) >>
	<< Calculating on displaced geometry   3 (of  24) >>
	<< Calculating on displaced geometry   1 (of  24) >>
	<< Calculating on displaced geometry   4 (of  24) >>
	<< Calculating on displaced geometry   2 (of  24) >>
	<< Calculating on displaced geometry   6 (of  24) >>
	<< Calculating on displaced geometry   9 (of  24) >>
	<< Calculating on displaced geometry   8 (of  24) >>
	<< Calculating on displaced geometry  10 (of  24) >>
	<< Calculating on displaced geometry   7 (of  24) >>
	<< Calculating on displaced geometry  11 (of  24) >>
	<< Calculating on displaced geometry  12 (of  24) >>
	<< Calculating on displaced geometry  13 (of  24) >>
	<< Calculating on displaced geometry  14 (of  24) >>
	<< Calculating on displaced geometry  15 (of  24) >>
	<< Calculating on displaced geometry  16 (of  24) >>
	<< Calculating on displaced geometry  17 (of  24) >>
	<< Calculating on displaced geometry  18 (of  24) >>
	<< Calculating on displaced geometry  19 (of  24) >>
	<< Calculating on displaced geometry  20 (of  24) >>
	<< Calculating on displaced geometry  21 (of  24) >>
	<< Calculating on displaced geometry  22 (of  24) >>
	<< Calculating on displaced geometry  23 (of  24) >>
	<< Calculating on displaced geometry  24 (of  24) >>

-----------------------
VIBRATIONAL FREQUENCIES
-----------------------

Scaling factor for frequencies =  1.000000000 (already applied!)

   0:         0.00 cm**-1
   1:         0.00 cm**-1
   2:         0.00 cm**-1
   3:         0.00 cm**-1
   4:         0.00 cm**-1
   5:         0.00 cm**-1
   6:        97.89 cm**-1
   7:       520.31 cm**-1
   8:       564.43 cm**-1
   9:       825.11 cm**-1
  10:      1083.63 cm**-1
  11:      3760.11 cm**-1


------------
NORMAL MODES
------------

These modes are the cartesian displacements weighted by the diagonal matrix
M(i,i)=1/sqrt(m[i]) where m[i] is the mass of the displaced atom
Thus, these vectors are normalized but *not* orthogonal

                  0          1          2          3          4          5    
      0       0.000000   0.000000   0.000000   0.000000   0.000000   0.000000
      1       0.000000   0.000000   0.000000   0.000000   0.000000   0.000000
      2       0.000000   0.000000   0.000000   0.000000   0.000000   0.000000
      3       0.000000   0.000000   0.000000   0.000000   0.000000   0.000000
      4       0.000000   0.000000   0.000000   0.000000   0.000000   0.000000
      5       0.000000   0.000000   0.000000   0.000000   0.000000   0.000000
      6       0.000000   0.000000   0.000000   0.000000   0.000000   0.000000
      7       0.000000   0.000000   0.000000   0.000000   0.000000   0.000000
      8       0.000000   0.000000   0.000000   0.000000   0.000000   0.000000
      9       0.000000   0.000000   0.000000   0.000000   0.000000   0.000000
     10       0.000000   0.000000   0.000000   0.000000   0.000000   0.000000
     11       0.000000   0.000000   0.000000   0.000000   0.000000   0.000000
                  6          7          8          9         10         11    
      0       0.063513   0.000032  -0.011922  -0.113800   0.253442   0.000011
      1      -0.118437   0.000121   0.032441   0.003884   0.172386   0.000080
      2      -0.000071  -0.035656  -0.000010  -0.000030   0.000116   0.000001
      3      -0.195853  -0.000004   0.047412  -0.210476  -0.707483  -0.000611
      4       0.205300  -0.000255  -0.028403  -0.181208  -0.556649  -0.000532
      5       0.000103   0.051928   0.000015   0.000043  -0.000169  -0.000002
      6      -0.042791  -0.000094  -0.013594   0.589653  -0.213351   0.062703
      7       0.172372  -0.000127  -0.152389   0.143432  -0.074278  -0.009403
      8       0.000281   0.141648   0.000040   0.000118  -0.000460  -0.000005
      9       0.074639  -0.000288   0.160244   0.634714  -0.201289  -0.986185
     10       0.929685  -0.001028   0.972967   0.372521  -0.064005   0.153028
     11      -0.001959  -0.987910  -0.000280  -0.000821   0.003206   0.000038


-----------
IR SPECTRUM
-----------

 Mode   freq       eps      Int      T**2         TX        TY        TZ
       cm**-1   L/(mol*cm) km/mol    a.u.
----------------------------------------------------------------------------
  6:     97.89   0.002879   14.55  0.009178  ( 0.054698  0.078650 -0.000288)
  7:    520.31   0.016165   81.69  0.009695  ( 0.000766  0.000244 -0.098462)
  8:    564.43   0.020126  101.71  0.011127  ( 0.038150  0.098346 -0.000018)
  9:    825.11   0.003489   17.63  0.001320  (-0.035891  0.005607 -0.000055)
 10:   1083.63   0.017622   89.05  0.005075  ( 0.055131  0.045113  0.000065)
 11:   3760.11   0.058821  297.26  0.004882  (-0.069685 -0.005066  0.000004)

* The epsilon (eps) is given for a Dirac delta lineshape.
** The dipole moment derivative (T) already includes vibrational overlap.

--------------
RAMAN SPECTRUM  
--------------

 Mode    freq (cm**-1)   Activity   Depolarization
-------------------------------------------------------------------
   6:        97.89      3.260298      0.749126
   7:       520.31      4.300724      0.750000
   8:       564.43      3.077408      0.521020
   9:       825.11     15.546833      0.313250
  10:      1083.63      4.153182      0.602667
  11:      3760.11    186.848146      0.312014

The first frequency considered to be a vibration is 6
The total number of vibrations considered is 6


--------------------------
THERMOCHEMISTRY AT 298.15K
--------------------------

Temperature         ... 298.15 K
Pressure            ... 1.00 atm
Total Mass          ... 91.94 AMU

Throughout the following assumptions are being made:
  (1) The electronic state is orbitally nondegenerate
  (2) There are no thermally accessible electronically excited states
  (3) Hindered rotations indicated by low frequency modes are not
      treated as such but are treated as vibrations and this may
      cause some error
  (4) All equations used are the standard statistical mechanics
      equations for an ideal gas
  (5) All vibrations are strictly harmonic

freq.      97.89  E(vib)   ...       0.46 
freq.     520.31  E(vib)   ...       0.13 
freq.     564.43  E(vib)   ...       0.11 
freq.     825.11  E(vib)   ...       0.04 
freq.    1083.63  E(vib)   ...       0.02 
freq.    3760.11  E(vib)   ...       0.00 

------------
INNER ENERGY
------------

The inner energy is: U= E(el) + E(ZPE) + E(vib) + E(rot) + E(trans)
    E(el)   - is the total energy from the electronic structure calculation
              = E(kin-el) + E(nuc-el) + E(el-el) + E(nuc-nuc)
    E(ZPE)  - the the zero temperature vibrational energy from the frequency calculation
    E(vib)  - the the finite temperature correction to E(ZPE) due to population
              of excited vibrational states
    E(rot)  - is the rotational thermal energy
    E(trans)- is the translational thermal energy

Summary of contributions to the inner energy U:
Electronic energy                ...  -1529.86987947 Eh
Zero point energy                ...      0.01560883 Eh       9.79 kcal/mol
Thermal vibrational correction   ...      0.00122694 Eh       0.77 kcal/mol
Thermal rotational correction    ...      0.00141627 Eh       0.89 kcal/mol
Thermal translational correction ...      0.00141627 Eh       0.89 kcal/mol
-----------------------------------------------------------------------
Total thermal energy                  -1529.85021116 Eh


Summary of corrections to the electronic energy:
(perhaps to be used in another calculation)
Total thermal correction                  0.00405948 Eh       2.55 kcal/mol
Non-thermal (ZPE) correction              0.01560883 Eh       9.79 kcal/mol
-----------------------------------------------------------------------
Total correction                          0.01966831 Eh      12.34 kcal/mol


--------
ENTHALPY
--------

The enthalpy is H = U + kB*T
                kB is Boltzmann's constant
Total free energy                 ...  -1529.85021116 Eh 
Thermal Enthalpy correction       ...      0.00094421 Eh       0.59 kcal/mol
-----------------------------------------------------------------------
Total Enthalpy                    ...  -1529.84926695 Eh


Note: Rotational entropy computed according to Herzberg 
Infrared and Raman Spectra, Chapter V,1, Van Nostrand Reinhold, 1945 
Point Group:  Cs, Symmetry Number:   1  
Rotational constants in cm-1:     8.145605     0.200954     0.196116 

Vibrational entropy computed according to the QRRHO of S. Grimme
Chem.Eur.J. 2012 18 9955


-------
ENTROPY
-------

The entropy contributions are T*S = T*(S(el)+S(vib)+S(rot)+S(trans))
     S(el)   - electronic entropy
     S(vib)  - vibrational entropy
     S(rot)  - rotational entropy
     S(trans)- translational entropy
The entropies will be listed as multiplied by the temperature to get
units of energy

Electronic entropy                ...      0.00000000 Eh      0.00 kcal/mol
Vibrational entropy               ...      0.00216348 Eh      1.36 kcal/mol
Rotational entropy                ...      0.01004722 Eh      6.30 kcal/mol
Translational entropy             ...      0.01875217 Eh     11.77 kcal/mol
-----------------------------------------------------------------------
Final entropy term                ...      0.03096287 Eh     19.43 kcal/mol

In case the symmetry of your molecule has not been determined correctly
or in case you have a reason to use a different symmetry number we print 
out the resulting rotational entropy values for sn=1,12 :
 --------------------------------------------------------
|  sn= 1 | S(rot)=       0.01004722 Eh      6.30 kcal/mol|
|  sn= 2 | S(rot)=       0.00939277 Eh      5.89 kcal/mol|
|  sn= 3 | S(rot)=       0.00900993 Eh      5.65 kcal/mol|
|  sn= 4 | S(rot)=       0.00873831 Eh      5.48 kcal/mol|
|  sn= 5 | S(rot)=       0.00852762 Eh      5.35 kcal/mol|
|  sn= 6 | S(rot)=       0.00835548 Eh      5.24 kcal/mol|
|  sn= 7 | S(rot)=       0.00820993 Eh      5.15 kcal/mol|
|  sn= 8 | S(rot)=       0.00808385 Eh      5.07 kcal/mol|
|  sn= 9 | S(rot)=       0.00797265 Eh      5.00 kcal/mol|
|  sn=10 | S(rot)=       0.00787317 Eh      4.94 kcal/mol|
|  sn=11 | S(rot)=       0.00778318 Eh      4.88 kcal/mol|
|  sn=12 | S(rot)=       0.00770102 Eh      4.83 kcal/mol|
 --------------------------------------------------------


-------------------
GIBBS FREE ENERGY
-------------------

The Gibbs free energy is G = H - T*S

Total enthalpy                    ...  -1529.84926695 Eh 
Total entropy correction          ...     -0.03096287 Eh    -19.43 kcal/mol
-----------------------------------------------------------------------
Final Gibbs free energy         ...  -1529.88022982 Eh

For completeness - the Gibbs free energy minus the electronic energy
G-E(el)                           ...     -0.01035035 Eh     -6.49 kcal/mol



Timings for individual modules:

Sum of individual times         ...      180.335 sec (=   3.006 min)
GTO integral calculation        ...       24.200 sec (=   0.403 min)  13.4 %
SCF iterations                  ...       67.219 sec (=   1.120 min)  37.3 %
Solution of CP-SCF eqns.        ...        1.836 sec (=   0.031 min)   1.0 %
SCF Gradient evaluation         ...       27.863 sec (=   0.464 min)  15.5 %
Geometry relaxation             ...        1.748 sec (=   0.029 min)   1.0 %
Numerical frequency calculation ...       57.469 sec (=   0.958 min)  31.9 %
                             ****ORCA TERMINATED NORMALLY****
TOTAL RUN TIME: 0 days 0 hours 2 minutes 56 seconds 974 msec
