
                                 *****************
                                 * O   R   C   A *
                                 *****************

                                            #,                                       
                                            ###                                      
                                            ####                                     
                                            #####                                    
                                            ######                                   
                                           ########,                                 
                                     ,,################,,,,,                         
                               ,,#################################,,                 
                          ,,##########################################,,             
                       ,#########################################, ''#####,          
                    ,#############################################,,   '####,        
                  ,##################################################,,,,####,       
                ,###########''''           ''''###############################       
              ,#####''   ,,,,##########,,,,          '''####'''          '####       
            ,##' ,,,,###########################,,,                        '##       
           ' ,,###''''                  '''############,,,                           
         ,,##''                                '''############,,,,        ,,,,,,###''
      ,#''                                            '''#######################'''  
     '                                                          ''''####''''         
             ,#######,   #######,   ,#######,      ##                                
            ,#'     '#,  ##    ##  ,#'     '#,    #''#        ######   ,####,        
            ##       ##  ##   ,#'  ##            #'  '#       #        #'  '#        
            ##       ##  #######   ##           ,######,      #####,   #    #        
            '#,     ,#'  ##    ##  '#,     ,#' ,#      #,         ##   #,  ,#        
             '#######'   ##     ##  '#######'  #'      '#     #####' # '####'        



                  #######################################################
                  #                        -***-                        #
                  #          Department of theory and spectroscopy      #
                  #    Directorship and core code : Frank Neese         #
                  #        Max Planck Institute fuer Kohlenforschung    #
                  #                Kaiser Wilhelm Platz 1               #
                  #                 D-45470 Muelheim/Ruhr               #
                  #                      Germany                        #
                  #                                                     #
                  #                  All rights reserved                #
                  #                        -***-                        #
                  #######################################################


                         Program Version 5.0.3 -  RELEASE  -


 With contributions from (in alphabetic order):
   Daniel Aravena         : Magnetic Suceptibility
   Michael Atanasov       : Ab Initio Ligand Field Theory (pilot matlab implementation)
   Alexander A. Auer      : GIAO ZORA, VPT2 properties, NMR spectrum
   Ute Becker             : Parallelization
   Giovanni Bistoni       : ED, misc. LED, open-shell LED, HFLD
   Martin Brehm           : Molecular dynamics
   Dmytro Bykov           : SCF Hessian
   Vijay G. Chilkuri      : MRCI spin determinant printing, contributions to CSF-ICE
   Dipayan Datta          : RHF DLPNO-CCSD density
   Achintya Kumar Dutta   : EOM-CC, STEOM-CC
   Dmitry Ganyushin       : Spin-Orbit,Spin-Spin,Magnetic field MRCI
   Miquel Garcia          : C-PCM and meta-GGA Hessian, CC/C-PCM, Gaussian charge scheme
   Yang Guo               : DLPNO-NEVPT2, F12-NEVPT2, CIM, IAO-localization
   Andreas Hansen         : Spin unrestricted coupled pair/coupled cluster methods
   Benjamin Helmich-Paris : MC-RPA, TRAH-SCF, COSX integrals
   Lee Huntington         : MR-EOM, pCC
   Robert Izsak           : Overlap fitted RIJCOSX, COSX-SCS-MP3, EOM
   Marcus Kettner         : VPT2
   Christian Kollmar      : KDIIS, OOCD, Brueckner-CCSD(T), CCSD density, CASPT2, CASPT2-K
   Simone Kossmann        : Meta GGA functionals, TD-DFT gradient, OOMP2, MP2 Hessian
   Martin Krupicka        : Initial AUTO-CI
   Lucas Lang             : DCDCAS
   Marvin Lechner         : AUTO-CI (C++ implementation), FIC-MRCC
   Dagmar Lenk            : GEPOL surface, SMD
   Dimitrios Liakos       : Extrapolation schemes; Compound Job, initial MDCI parallelization
   Dimitrios Manganas     : Further ROCIS development; embedding schemes
   Dimitrios Pantazis     : SARC Basis sets
   Anastasios Papadopoulos: AUTO-CI, single reference methods and gradients
   Taras Petrenko         : DFT Hessian,TD-DFT gradient, ASA, ECA, R-Raman, ABS, FL, XAS/XES, NRVS
   Peter Pinski           : DLPNO-MP2, DLPNO-MP2 Gradient
   Christoph Reimann      : Effective Core Potentials
   Marius Retegan         : Local ZFS, SOC
   Christoph Riplinger    : Optimizer, TS searches, QM/MM, DLPNO-CCSD(T), (RO)-DLPNO pert. Triples
   Tobias Risthaus        : Range-separated hybrids, TD-DFT gradient, RPA, STAB
   Michael Roemelt        : Original ROCIS implementation
   Masaaki Saitow         : Open-shell DLPNO-CCSD energy and density
   Barbara Sandhoefer     : DKH picture change effects
   Avijit Sen             : IP-ROCIS
   Kantharuban Sivalingam : CASSCF convergence, NEVPT2, FIC-MRCI
   Bernardo de Souza      : ESD, SOC TD-DFT
   Georgi Stoychev        : AutoAux, RI-MP2 NMR, DLPNO-MP2 response
   Willem Van den Heuvel  : Paramagnetic NMR
   Boris Wezisla          : Elementary symmetry handling
   Frank Wennmohs         : Technical directorship


 We gratefully acknowledge several colleagues who have allowed us to
 interface, adapt or use parts of their codes:
   Stefan Grimme, W. Hujo, H. Kruse, P. Pracht,  : VdW corrections, initial TS optimization,
                  C. Bannwarth, S. Ehlert          DFT functionals, gCP, sTDA/sTD-DF
   Ed Valeev, F. Pavosevic, A. Kumar             : LibInt (2-el integral package), F12 methods
   Garnet Chan, S. Sharma, J. Yang, R. Olivares  : DMRG
   Ulf Ekstrom                                   : XCFun DFT Library
   Mihaly Kallay                                 : mrcc  (arbitrary order and MRCC methods)
   Jiri Pittner, Ondrej Demel                    : Mk-CCSD
   Frank Weinhold                                : gennbo (NPA and NBO analysis)
   Christopher J. Cramer and Donald G. Truhlar   : smd solvation model
   Lars Goerigk                                  : TD-DFT with DH, B97 family of functionals
   V. Asgeirsson, H. Jonsson                     : NEB implementation
   FAccTs GmbH                                   : IRC, NEB, NEB-TS, DLPNO-Multilevel, CI-OPT
                                                   MM, QMMM, 2- and 3-layer-ONIOM, Crystal-QMMM,
                                                   LR-CPCM, SF, NACMEs, symmetry and pop. for TD-DFT,
                                                   nearIR, NL-DFT gradient (VV10), updates on ESD,
                                                   ML-optimized integration grids
   S Lehtola, MJT Oliveira, MAL Marques          : LibXC Library
   Liviu Ungur et al                             : ANISO software


 Your calculation uses the libint2 library for the computation of 2-el integrals
 For citations please refer to: http://libint.valeyev.net

 Your ORCA version has been built with support for libXC version: 5.1.0
 For citations please refer to: https://tddft.org/programs/libxc/

 This ORCA versions uses:
   CBLAS   interface :  Fast vector & matrix operations
   LAPACKE interface :  Fast linear algebra routines
   Shared memory     :  Shared parallel matrices


SCAN-COORDS
================================================================================

----- Orbital basis set information -----
Your calculation utilizes the basis: def2-SVP
   F. Weigend and R. Ahlrichs, Phys. Chem. Chem. Phys. 7, 3297 (2005).

----- AuxJ basis set information -----
Your calculation utilizes the auxiliary basis: def2/J
   F. Weigend, Phys. Chem. Chem. Phys. 8, 1057 (2006).

================================================================================
                                        WARNINGS
                       Please study these warnings very carefully!
================================================================================


WARNING: your system is open-shell and RHF/RKS was chosen
  ===> : WILL SWITCH to UHF/UKS


WARNING: Geometry Optimization
  ===> : Switching off AutoStart
         For restart on a previous wavefunction, please use MOREAD

INFO   : the flag for use of the SHARK integral package has been found!

================================================================================
                                       INPUT FILE
================================================================================
NAME = inputAdvance_COMPLETE.inp
|  1> ! VWN
|  2> %method
|  3>         method DFT
|  4>         runtyp OPT
|  5> end
|  6> 
|  7> %scf                  
|  8>        MaxIter 500
|  9> end
| 10> %geom                  
| 11>        MaxIter 500
| 12>        Convergence loose                                                  
| 13> end
| 14> 
| 15> %basis
| 16>         basis "def2-SVP"
| 17> end
| 18> ! NumFreq
| 19> %elprop
| 20>         Polar 1
| 21> end
| 22> %output
| 23>         XYZFile true
| 24> end
| 25> %coords
| 26>         CTyp xyz
| 27>         Charge 0
| 28>         Mult 2
| 29>         Units Angs
| 30>         coords
| 31> 	O	0	0	0
| 32> 	H	1	0	0
| 33>         end
| 34> end
| 35> 
| 36>                          ****END OF INPUT****
================================================================================

                       *****************************
                       * Geometry Optimization Run *
                       *****************************

Geometry optimization settings:
Update method            Update   .... BFGS
Choice of coordinates    CoordSys .... Z-matrix Internals
Initial Hessian          InHess   .... Almoef's Model

Convergence Tolerances:
Energy Change            TolE     ....  3.0000e-05 Eh
Max. Gradient            TolMAXG  ....  2.0000e-03 Eh/bohr
RMS Gradient             TolRMSG  ....  5.0000e-04 Eh/bohr
Max. Displacement        TolMAXD  ....  1.0000e-02 bohr
RMS Displacement         TolRMSD  ....  7.0000e-03 bohr
Strict Convergence                ....  False
------------------------------------------------------------------------------
                        ORCA OPTIMIZATION COORDINATE SETUP
------------------------------------------------------------------------------

The optimization will be done in new redundant internal coordinates
Making redundant internal coordinates   ...  (new redundants) done
Evaluating the initial hessian          ...  (Almloef) done
Evaluating the coordinates              ...  done
Calculating the B-matrix                .... done
Calculating the G-matrix                .... done
Diagonalizing the G-matrix              .... done
The first mode is                       ....    0
The number of degrees of freedom        ....    1

    -----------------------------------------------------------------
                    Redundant Internal Coordinates


    -----------------------------------------------------------------
         Definition                    Initial Value    Approx d2E/dq
    -----------------------------------------------------------------
      1. B(H   1,O   0)                  1.0000         0.448900   
    -----------------------------------------------------------------

Number of atoms                         .... 2
Number of degrees of freedom            .... 1

         *************************************************************
         *                GEOMETRY OPTIMIZATION CYCLE   1            *
         *************************************************************
---------------------------------
CARTESIAN COORDINATES (ANGSTROEM)
---------------------------------
  O      0.000000    0.000000    0.000000
  H      1.000000    0.000000    0.000000

----------------------------
CARTESIAN COORDINATES (A.U.)
----------------------------
  NO LB      ZA    FRAG     MASS         X           Y           Z
   0 O     8.0000    0    15.999    0.000000    0.000000    0.000000
   1 H     1.0000    0     1.008    1.889726    0.000000    0.000000

--------------------------------
INTERNAL COORDINATES (ANGSTROEM)
--------------------------------
 O      0   0   0     0.000000000000     0.00000000     0.00000000
 H      1   0   0     1.000000000000     0.00000000     0.00000000

---------------------------
INTERNAL COORDINATES (A.U.)
---------------------------
 O      0   0   0     0.000000000000     0.00000000     0.00000000
 H      1   0   0     1.889726133921     0.00000000     0.00000000

---------------------
BASIS SET INFORMATION
---------------------
There are 2 groups of distinct atoms

 Group   1 Type O   : 7s4p1d contracted to 3s2p1d pattern {511/31/1}
 Group   2 Type H   : 4s1p contracted to 2s1p pattern {31/1}

Atom   0O    basis set group =>   1
Atom   1H    basis set group =>   2
---------------------------------
AUXILIARY/J BASIS SET INFORMATION
---------------------------------
There are 2 groups of distinct atoms

 Group   1 Type O   : 12s5p4d2f1g contracted to 6s4p3d1f1g pattern {711111/2111/211/2/1}
 Group   2 Type H   : 5s2p1d contracted to 3s1p1d pattern {311/2/1}

Atom   0O    basis set group =>   1
Atom   1H    basis set group =>   2
------------------------------------------------------------------------------
                           ORCA GTO INTEGRAL CALCULATION
                           -- RI-GTO INTEGRALS CHOSEN --
------------------------------------------------------------------------------
------------------------------------------------------------------------------
                   ___                                                        
                  /   \      - P O W E R E D   B Y -                         
                 /     \                                                     
                 |  |  |   _    _      __       _____    __    __             
                 |  |  |  | |  | |    /  \     |  _  \  |  |  /  |          
                  \  \/   | |  | |   /    \    | | | |  |  | /  /          
                 / \  \   | |__| |  /  /\  \   | |_| |  |  |/  /          
                |  |  |   |  __  | /  /__\  \  |    /   |      \           
                |  |  |   | |  | | |   __   |  |    \   |  |\   \          
                \     /   | |  | | |  |  |  |  | |\  \  |  | \   \       
                 \___/    |_|  |_| |__|  |__|  |_| \__\ |__|  \__/        
                                                                              
                      - O R C A' S   B I G   F R I E N D -                    
                                      &                                       
                       - I N T E G R A L  F E E D E R -                       
                                                                              
 v1 FN, 2020, v2 2021                                                         
------------------------------------------------------------------------------


Reading SHARK input file inputAdvance_COMPLETE.SHARKINP.tmp ... ok
----------------------
SHARK INTEGRAL PACKAGE
----------------------

Number of atoms                             ...      2
Number of basis functions                   ...     19
Number of shells                            ...      9
Maximum angular momentum                    ...      2
Integral batch strategy                     ... SHARK/LIBINT Hybrid
RI-J (if used) integral strategy            ... SPLIT-RIJ (Revised 2003 algorithm where possible)
Printlevel                                  ...      1
Contraction scheme used                     ... SEGMENTED contraction
Coulomb Range Separation                    ... NOT USED
Exchange Range Separation                   ... NOT USED
Finite Nucleus Model                        ... NOT USED
Auxiliary Coulomb fitting basis             ... AVAILABLE
   # of basis functions in Aux-J            ...     60
   # of shells in Aux-J                     ...     20
   Maximum angular momentum in Aux-J        ...      4
Auxiliary J/K fitting basis                 ... NOT available
Auxiliary Correlation fitting basis         ... NOT available
Auxiliary 'external' fitting basis          ... NOT available
Integral threshold                          ...     2.500000e-11
Primitive cut-off                           ...     2.500000e-12
Primitive pair pre-selection threshold      ...     2.500000e-12

Calculating pre-screening integrals         ... done (  0.0 sec) Dimension = 9
Organizing shell pair data                  ... done (  0.0 sec)
Shell pair information
Total number of shell pairs                 ...        45
Shell pairs after pre-screening             ...        45
Total number of primitive shell pairs       ...       169
Primitive shell pairs kept                  ...       165
          la=0 lb=0:     15 shell pairs
          la=1 lb=0:     15 shell pairs
          la=1 lb=1:      6 shell pairs
          la=2 lb=0:      5 shell pairs
          la=2 lb=1:      3 shell pairs
          la=2 lb=2:      1 shell pairs

Calculating one electron integrals          ... done (  0.0 sec)
Calculating RI/J V-Matrix + Cholesky decomp.... done (  0.0 sec)
Calculating Nuclear repulsion               ... done (  0.0 sec) ENN=      4.233417666400 Eh

SHARK setup successfully completed in   0.1 seconds

Maximum memory used throughout the entire GTOINT-calculation: 8.7 MB
-------------------------------------------------------------------------------
                                 ORCA SCF
-------------------------------------------------------------------------------

------------
SCF SETTINGS
------------
Hamiltonian:
 Density Functional     Method          .... DFT(GTOs)
 Exchange Functional    Exchange        .... Slater
   X-Alpha parameter    XAlpha          ....  0.666667
 Correlation Functional Correlation     .... VWN-5
 Gradients option       PostSCFGGA      .... off
   Density functional embedding theory  .... OFF
 RI-approximation to the Coulomb term is turned on
   Number of AuxJ basis functions       .... 60


General Settings:
 Integral files         IntName         .... inputAdvance_COMPLETE
 Hartree-Fock type      HFTyp           .... UHF
 Total Charge           Charge          ....    0
 Multiplicity           Mult            ....    2
 Number of Electrons    NEL             ....    9
 Basis Dimension        Dim             ....   19
 Nuclear Repulsion      ENuc            ....      4.2334176664 Eh

Convergence Acceleration:
 DIIS                   CNVDIIS         .... on
   Start iteration      DIISMaxIt       ....    12
   Startup error        DIISStart       ....  0.200000
   # of expansion vecs  DIISMaxEq       ....     5
   Bias factor          DIISBfac        ....   1.050
   Max. coefficient     DIISMaxC        ....  10.000
 Trust-Rad. Augm. Hess. CNVTRAH         .... auto
   Auto Start mean grad. ratio tolernc. ....  1.125000
   Auto Start start iteration           ....    20
   Auto Start num. interpolation iter.  ....    10
   Max. Number of Micro iterations      ....    16
   Max. Number of Macro iterations      .... Maxiter - #DIIS iter
   Number of Davidson start vectors     ....     2
   Converg. threshold I  (grad. norm)   ....   1.000e-05
   Converg. threshold II (energy diff.) ....   1.000e-08
   Grad. Scal. Fac. for Micro threshold ....   0.100
   Minimum threshold for Micro iter.    ....   0.010
   NR start threshold (gradient norm)   ....   0.001
   Initial trust radius                 ....   0.400
   Minimum AH scaling param. (alpha)    ....   1.000
   Maximum AH scaling param. (alpha)    .... 1000.000
   Orbital update algorithm             .... Taylor
   White noise on init. David. guess    .... on
   Maximum white noise                  ....   0.010
   Quad. conv. algorithm                .... NR
 SOSCF                  CNVSOSCF        .... off
 Level Shifting         CNVShift        .... on
   Level shift para.    LevelShift      ....    0.2500
   Turn off err/grad.   ShiftErr        ....    0.0010
 Zerner damping         CNVZerner       .... off
 Static damping         CNVDamp         .... on
   Fraction old density DampFac         ....    0.7000
   Max. Damping (<1)    DampMax         ....    0.9800
   Min. Damping (>=0)   DampMin         ....    0.0000
   Turn off err/grad.   DampErr         ....    0.1000
 Fernandez-Rico         CNVRico         .... off

SCF Procedure:
 Maximum # iterations   MaxIter         ....   500
 SCF integral mode      SCFMode         .... Direct
   Integral package                     .... SHARK and LIBINT hybrid scheme
 Reset frequency        DirectResetFreq ....    20
 Integral Threshold     Thresh          ....  2.500e-11 Eh
 Primitive CutOff       TCut            ....  2.500e-12 Eh

Convergence Tolerance:
 Convergence Check Mode ConvCheckMode   .... Total+1el-Energy
 Convergence forced     ConvForced      .... 0
 Energy Change          TolE            ....  1.000e-08 Eh
 1-El. energy change                    ....  1.000e-05 Eh
 DIIS Error             TolErr          ....  5.000e-07


Diagonalization of the overlap matrix:
Smallest eigenvalue                        ... 5.799e-02
Time for diagonalization                   ...    0.004 sec
Threshold for overlap eigenvalues          ... 1.000e-08
Number of eigenvalues below threshold      ... 0
Time for construction of square roots      ...    0.001 sec
Total time needed                          ...    0.005 sec

Time for model grid setup =    0.008 sec

------------------------------
INITIAL GUESS: MODEL POTENTIAL
------------------------------
Loading Hartree-Fock densities                     ... done
Calculating cut-offs                               ... done
Initializing the effective Hamiltonian             ... done
Setting up the integral package (SHARK)            ... done
Starting the Coulomb interaction                   ... done (   0.0 sec)
Reading the grid                                   ... done
Mapping shells                                     ... done
Starting the XC term evaluation                    ... done (   0.0 sec)
  promolecular density results
     # of electrons  =      8.999365934
     EX              =     -7.571019248
     EC              =     -0.600134048
     EX+EC           =     -8.171153296
Transforming the Hamiltonian                       ... done (   0.0 sec)
Diagonalizing the Hamiltonian                      ... done (   0.0 sec)
Back transforming the eigenvectors                 ... done (   0.0 sec)
Now organizing SCF variables                       ... done
                      ------------------
                      INITIAL GUESS DONE (   0.0 sec)
                      ------------------
-------------------
DFT GRID GENERATION
-------------------

General Integration Accuracy     IntAcc      ... 4.388
Radial Grid Type                 RadialGrid  ... OptM3 with GC (2021)
Angular Grid (max. ang.)         AngularGrid ... 4 (Lebedev-302)
Angular grid pruning method      GridPruning ... 4 (adaptive)
Weight generation scheme         WeightScheme... Becke
Basis function cutoff            BFCut       ... 1.0000e-11
Integration weight cutoff        WCut        ... 1.0000e-14
Angular grids for H and He will be reduced by one unit
Partially contracted basis set               ... off
Rotationally invariant grid construction     ... off

Total number of grid points                  ...     9454
Total number of batches                      ...      149
Average number of points per batch           ...       63
Average number of grid points per atom       ...     4727
Time for grid setup =    0.060 sec

--------------
SCF ITERATIONS
--------------
ITER       Energy         Delta-E        Max-DP      RMS-DP      [F,P]     Damp
               ***  Starting incremental Fock matrix formation  ***
  0    -75.0776115278   0.000000000000 0.02606055  0.00288721  0.0848514 0.7000
  1    -75.0869682365  -0.009356708735 0.01704233  0.00177503  0.0416835 0.7000
                               ***Turning on DIIS***
  2    -75.0904067301  -0.003438493614 0.02504971  0.00251211  0.0224761 0.0000
  3    -75.0962891418  -0.005882411686 0.01274073  0.00140303  0.0222515 0.0000
  4    -75.0974604555  -0.001171313672 0.00359723  0.00030058  0.0032566 0.0000
  5    -75.0974975624  -0.000037106898 0.00100128  0.00010019  0.0007973 0.0000
  6    -75.0975005083  -0.000002945919 0.00020232  0.00001618  0.0002502 0.0000
  7    -75.0975006349  -0.000000126589 0.00005155  0.00000519  0.0000481 0.0000
  8    -75.0975006426  -0.000000007687 0.00000891  0.00000092  0.0000108 0.0000
  9    -75.0975006429  -0.000000000345 0.00000285  0.00000022  0.0000030 0.0000
                 **** Energy Check signals convergence ****

               *****************************************************
               *                     SUCCESS                       *
               *           SCF CONVERGED AFTER  10 CYCLES          *
               *****************************************************


----------------
TOTAL SCF ENERGY
----------------

Total Energy       :          -75.09750064 Eh           -2043.50688 eV

Components:
Nuclear Repulsion  :            4.23341767 Eh             115.19715 eV
Electronic Energy  :          -79.33091831 Eh           -2158.70403 eV
One Electron Energy:         -112.38132650 Eh           -3058.05136 eV
Two Electron Energy:           33.05040819 Eh             899.34733 eV

Virial components:
Potential Energy   :         -150.09208412 Eh           -4084.21325 eV
Kinetic Energy     :           74.99458347 Eh            2040.70636 eV
Virial Ratio       :            2.00137233


DFT components:
N(Alpha)           :        4.999999318190 electrons
N(Beta)            :        3.999999491351 electrons
N(Total)           :        8.999998809541 electrons
E(X)               :       -7.709134311039 Eh       
E(C)               :       -0.601233653647 Eh       
E(XC)              :       -8.310367964686 Eh       
DFET-embed. en.    :        0.000000000000 Eh       

---------------
SCF CONVERGENCE
---------------

  Last Energy change         ...   -1.8147e-11  Tolerance :   1.0000e-08
  Last MAX-Density change    ...    6.8238e-07  Tolerance :   1.0000e-07
  Last RMS-Density change    ...    5.3278e-08  Tolerance :   5.0000e-09
  Last DIIS Error            ...    4.4328e-07  Tolerance :   5.0000e-07

             **** THE GBW FILE WAS UPDATED (inputAdvance_COMPLETE.gbw) ****
             **** DENSITY inputAdvance_COMPLETE.scfp WAS UPDATED ****
             **** ENERGY FILE WAS UPDATED (inputAdvance_COMPLETE.en.tmp) ****
----------------------
UHF SPIN CONTAMINATION
----------------------

Warning: in a DFT calculation there is little theoretical justification to 
         calculate <S**2> as in Hartree-Fock theory. We will do it anyways
         but you should keep in mind that the values have only limited relevance

Expectation value of <S**2>     :     0.751623
Ideal value S*(S+1) for S=0.5   :     0.750000
Deviation                       :     0.001623

             **** THE GBW FILE WAS UPDATED (inputAdvance_COMPLETE.gbw) ****
             **** DENSITY inputAdvance_COMPLETE.scfp WAS UPDATED ****
----------------
ORBITAL ENERGIES
----------------
                 SPIN UP ORBITALS
  NO   OCC          E(Eh)            E(eV) 
   0   1.0000     -18.659498      -507.7507 
   1   1.0000      -0.879003       -23.9189 
   2   1.0000      -0.401275       -10.9193 
   3   1.0000      -0.335447        -9.1280 
   4   1.0000      -0.266906        -7.2629 
   5   0.0000       0.024527         0.6674 
   6   0.0000       0.502911        13.6849 
   7   0.0000       0.783925        21.3317 
   8   0.0000       0.820740        22.3335 
   9   0.0000       0.828711        22.5504 
  10   0.0000       0.973668        26.4949 
  11   0.0000       1.327508        36.1233 
  12   0.0000       1.345669        36.6175 
  13   0.0000       2.023222        55.0547 
  14   0.0000       2.490327        67.7653 
  15   0.0000       2.491626        67.8006 
  16   0.0000       2.779007        75.6206 
  17   0.0000       2.829800        77.0028 
  18   0.0000       3.518331        95.7387 

                 SPIN DOWN ORBITALS
  NO   OCC          E(Eh)            E(eV) 
   0   1.0000     -18.633844      -507.0527 
   1   1.0000      -0.827592       -22.5199 
   2   1.0000      -0.372087       -10.1250 
   3   1.0000      -0.235221        -6.4007 
   4   0.0000      -0.233027        -6.3410 
   5   0.0000       0.034618         0.9420 
   6   0.0000       0.510875        13.9016 
   7   0.0000       0.847481        23.0611 
   8   0.0000       0.851794        23.1785 
   9   0.0000       0.858180        23.3523 
  10   0.0000       1.002476        27.2788 
  11   0.0000       1.343693        36.5637 
  12   0.0000       1.347559        36.6690 
  13   0.0000       2.040757        55.5318 
  14   0.0000       2.561655        69.7062 
  15   0.0000       2.568031        69.8797 
  16   0.0000       2.845926        77.4416 
  17   0.0000       2.850661        77.5704 
  18   0.0000       3.550210        96.6061 

                    ********************************
                    * MULLIKEN POPULATION ANALYSIS *
                    ********************************

--------------------------------------------
MULLIKEN ATOMIC CHARGES AND SPIN POPULATIONS
--------------------------------------------
   0 O :   -0.205123    1.027247
   1 H :    0.205123   -0.027247
Sum of atomic charges         :    0.0000000
Sum of atomic spin populations:    1.0000000

-----------------------------------------------------
MULLIKEN REDUCED ORBITAL CHARGES AND SPIN POPULATIONS
-----------------------------------------------------
CHARGE
  0 O s       :     3.887137  s :     3.887137
      pz      :     0.991270  p :     4.311879
      px      :     1.341963
      py      :     1.978646
      dz2     :     0.001284  d :     0.006107
      dxz     :     0.000442
      dyz     :     0.000000
      dx2y2   :     0.003524
      dxy     :     0.000857
  1 H s       :     0.734817  s :     0.734817
      pz      :     0.008375  p :     0.060060
      px      :     0.031275
      py      :     0.020410

SPIN
  0 O s       :     0.008048  s :     0.008048
      pz      :     0.991097  p :     1.018593
      px      :     0.026576
      py      :     0.000921
      dz2     :     0.000095  d :     0.000605
      dxz     :     0.000442
      dyz     :     0.000000
      dx2y2   :     0.000047
      dxy     :     0.000022
  1 H s       :    -0.034975  s :    -0.034975
      pz      :     0.008373  p :     0.007728
      px      :     0.000210
      py      :    -0.000855


                     *******************************
                     * LOEWDIN POPULATION ANALYSIS *
                     *******************************

-------------------------------------------
LOEWDIN ATOMIC CHARGES AND SPIN POPULATIONS
-------------------------------------------
   0 O :   -0.086508    1.001232
   1 H :    0.086508   -0.001232

----------------------------------------------------
LOEWDIN REDUCED ORBITAL CHARGES AND SPIN POPULATIONS
----------------------------------------------------
CHARGE
  0 O s       :     3.714575  s :     3.714575
      pz      :     0.977771  p :     4.361928
      px      :     1.433652
      py      :     1.950505
      dz2     :     0.002672  d :     0.010005
      dxz     :     0.000188
      dyz     :     0.000000
      dx2y2   :     0.006792
      dxy     :     0.000353
  1 H s       :     0.748310  s :     0.748310
      pz      :     0.022129  p :     0.165181
      px      :     0.093999
      py      :     0.049054

SPIN
  0 O s       :     0.005207  s :     0.005207
      pz      :     0.977600  p :     0.995864
      px      :     0.017014
      py      :     0.001250
      dz2     :     0.000260  d :     0.000161
      dxz     :     0.000188
      dyz     :     0.000000
      dx2y2   :    -0.000302
      dxy     :     0.000015
  1 H s       :    -0.024845  s :    -0.024845
      pz      :     0.022125  p :     0.023613
      px      :     0.002666
      py      :    -0.001177


                      *****************************
                      * MAYER POPULATION ANALYSIS *
                      *****************************

  NA   - Mulliken gross atomic population
  ZA   - Total nuclear charge
  QA   - Mulliken gross atomic charge
  VA   - Mayer's total valence
  BVA  - Mayer's bonded valence
  FA   - Mayer's free valence

  ATOM       NA         ZA         QA         VA         BVA        FA
  0 O      8.2051     8.0000    -0.2051     1.9683     0.9825     0.9858
  1 H      0.7949     1.0000     0.2051     0.9839     0.9825     0.0014

  Mayer bond orders larger than 0.100000
B(  0-O ,  1-H ) :   0.9825 

-------
TIMINGS
-------

Total SCF time: 0 days 0 hours 0 min 1 sec 

Total time                  ....       1.386 sec
Sum of individual times     ....       1.218 sec  ( 87.9%)

Fock matrix formation       ....       0.943 sec  ( 68.0%)
  Split-RI-J                ....       0.031 sec  (  3.3% of F)
  XC integration            ....       0.552 sec  ( 58.5% of F)
    Basis function eval.    ....       0.052 sec  (  9.4% of XC)
    Density eval.           ....       0.053 sec  (  9.6% of XC)
    XC-Functional eval.     ....       0.068 sec  ( 12.3% of XC)
    XC-Potential eval.      ....       0.028 sec  (  5.1% of XC)
Diagonalization             ....       0.004 sec  (  0.3%)
Density matrix formation    ....       0.000 sec  (  0.0%)
Population analysis         ....       0.019 sec  (  1.4%)
Initial guess               ....       0.016 sec  (  1.2%)
Orbital Transformation      ....       0.000 sec  (  0.0%)
Orbital Orthonormalization  ....       0.000 sec  (  0.0%)
DIIS solution               ....       0.168 sec  ( 12.1%)
Grid generation             ....       0.068 sec  (  4.9%)

Maximum memory used throughout the entire SCF-calculation: 6.5 MB

-------------------------   --------------------
FINAL SINGLE POINT ENERGY       -75.097500642934
-------------------------   --------------------

------------------------------------------------------------------------------
                         ORCA SCF GRADIENT CALCULATION
------------------------------------------------------------------------------

Gradient of the Kohn-Sham DFT energy:
Kohn-Sham wavefunction type      ... UKS
Hartree-Fock exchange scaling    ...    0.000
Number of operators              ...    2
Number of atoms                  ...    2
Basis set dimensions             ...   19
Integral neglect threshold       ... 2.5e-11
Integral primitive cutoff        ... 2.5e-12
SHARK Integral package           ... ON

Nuc. rep. gradient       (SHARK) ... done (  0.0 sec)
HCore & Overlap gradient (SHARK) ... done (  0.0 sec)
RI-J gradient            (SHARK) ... done (  0.0 sec)
Exchange-correlation gradient    ... done

------------------
CARTESIAN GRADIENT
------------------

   1   O   :   -0.008081924    0.000000000   -0.000000000
   2   H   :    0.008081924   -0.000000000    0.000000000

Difference to translation invariance:
           :    0.0000000000    0.0000000000    0.0000000000

Difference to rotation invariance:
           :    0.0000000000   -0.0000000000   -0.0000000001

Norm of the cartesian gradient     ...    0.0114295665
RMS gradient                       ...    0.0046661010
MAX gradient                       ...    0.0080819240

-------
TIMINGS
-------

Total SCF gradient time            ...        0.136 sec

One electron gradient       ....       0.002 sec  (  1.5%)
RI-J Coulomb gradient       ....       0.041 sec  ( 30.1%)
XC gradient                 ....       0.030 sec  ( 22.1%)

Maximum memory used throughout the entire SCFGRAD-calculation: 5.1 MB
------------------------------------------------------------------------------
                         ORCA GEOMETRY RELAXATION STEP
------------------------------------------------------------------------------

Reading the OPT-File                    .... done
Getting information on internals        .... done
Copying old internal coords+grads       .... done
Making the new internal coordinates     .... (new redundants).... done
Validating the new internal coordinates .... (new redundants).... done
Calculating the B-matrix                .... done
Calculating the G,G- and P matrices     .... done
Transforming gradient to internals      .... done
Projecting the internal gradient        .... done
Number of atoms                         ....   2
Number of internal coordinates          ....   1
Current Energy                          ....   -75.097500643 Eh
Current gradient norm                   ....     0.011429566 Eh/bohr
Maximum allowed component of the step   ....  0.300
Current trust radius                    ....  0.300
Evaluating the initial hessian          ....  (Almloef) done
Projecting the Hessian                  .... done
Forming the augmented Hessian           .... done
Diagonalizing the augmented Hessian     .... done
Last element of RFO vector              ....  0.999838075
Lowest eigenvalues of augmented Hessian:
 -0.000145459
Length of the computed step             ....  0.017998021
The final length of the internal step   ....  0.017998021
Converting the step to cartesian space:
 Initial RMS(Int)=    0.0179980214
Transforming coordinates:
 Iter   0:  RMS(Cart)=    0.0051955812 RMS(Int)=    0.0179980214
 Iter   1:  RMS(Cart)=    0.0000000000 RMS(Int)=    0.0000000000
done
Storing new coordinates                 .... done

                                .--------------------.
          ----------------------|Geometry convergence|-------------------------
          Item                value                   Tolerance       Converged
          ---------------------------------------------------------------------
          RMS gradient        0.0080819240            0.0005000000      NO
          MAX gradient        0.0080819240            0.0020000000      NO
          RMS step            0.0179980214            0.0070000000      NO
          MAX step            0.0179980214            0.0100000000      NO
          ........................................................
          Max(Bonds)      0.0095      Max(Angles)    0.00
          Max(Dihed)        0.00      Max(Improp)    0.00
          ---------------------------------------------------------------------

The optimization has not yet converged - more geometry cycles are needed


    ---------------------------------------------------------------------------
                         Redundant Internal Coordinates
                            (Angstroem and degrees)

        Definition                    Value    dE/dq     Step     New-Value
    ----------------------------------------------------------------------------
     1. B(H   1,O   0)                1.0000  0.008082 -0.0095    0.9905   
    ----------------------------------------------------------------------------

         *************************************************************
         *                GEOMETRY OPTIMIZATION CYCLE   2            *
         *************************************************************
---------------------------------
CARTESIAN COORDINATES (ANGSTROEM)
---------------------------------
  O      0.004762    0.000000    0.000000
  H      0.995238    0.000000    0.000000

----------------------------
CARTESIAN COORDINATES (A.U.)
----------------------------
  NO LB      ZA    FRAG     MASS         X           Y           Z
   0 O     8.0000    0    15.999    0.008999    0.000000    0.000000
   1 H     1.0000    0     1.008    1.880727    0.000000    0.000000

--------------------------------
INTERNAL COORDINATES (ANGSTROEM)
--------------------------------
 O      0   0   0     0.000000000000     0.00000000     0.00000000
 H      1   0   0     0.990475857290     0.00000000     0.00000000

---------------------------
INTERNAL COORDINATES (A.U.)
---------------------------
 O      0   0   0     0.000000000000     0.00000000     0.00000000
 H      1   0   0     1.871728112540     0.00000000     0.00000000

------------------------------------------------------------------------------
                   ___                                                        
                  /   \      - P O W E R E D   B Y -                         
                 /     \                                                     
                 |  |  |   _    _      __       _____    __    __             
                 |  |  |  | |  | |    /  \     |  _  \  |  |  /  |          
                  \  \/   | |  | |   /    \    | | | |  |  | /  /          
                 / \  \   | |__| |  /  /\  \   | |_| |  |  |/  /          
                |  |  |   |  __  | /  /__\  \  |    /   |      \           
                |  |  |   | |  | | |   __   |  |    \   |  |\   \          
                \     /   | |  | | |  |  |  |  | |\  \  |  | \   \       
                 \___/    |_|  |_| |__|  |__|  |_| \__\ |__|  \__/        
                                                                              
                      - O R C A' S   B I G   F R I E N D -                    
                                      &                                       
                       - I N T E G R A L  F E E D E R -                       
                                                                              
 v1 FN, 2020, v2 2021                                                         
------------------------------------------------------------------------------


Reading SHARK input file inputAdvance_COMPLETE.SHARKINP.tmp ... ok
----------------------
SHARK INTEGRAL PACKAGE
----------------------

Number of atoms                             ...      2
Number of basis functions                   ...     19
Number of shells                            ...      9
Maximum angular momentum                    ...      2
Integral batch strategy                     ... SHARK/LIBINT Hybrid
RI-J (if used) integral strategy            ... SPLIT-RIJ (Revised 2003 algorithm where possible)
Printlevel                                  ...      1
Contraction scheme used                     ... SEGMENTED contraction
Coulomb Range Separation                    ... NOT USED
Exchange Range Separation                   ... NOT USED
Finite Nucleus Model                        ... NOT USED
Auxiliary Coulomb fitting basis             ... AVAILABLE
   # of basis functions in Aux-J            ...     60
   # of shells in Aux-J                     ...     20
   Maximum angular momentum in Aux-J        ...      4
Auxiliary J/K fitting basis                 ... NOT available
Auxiliary Correlation fitting basis         ... NOT available
Auxiliary 'external' fitting basis          ... NOT available
Integral threshold                          ...     2.500000e-11
Primitive cut-off                           ...     2.500000e-12
Primitive pair pre-selection threshold      ...     2.500000e-12

Calculating pre-screening integrals         ... done (  0.0 sec) Dimension = 9
Organizing shell pair data                  ... done (  0.0 sec)
Shell pair information
Total number of shell pairs                 ...        45
Shell pairs after pre-screening             ...        45
Total number of primitive shell pairs       ...       169
Primitive shell pairs kept                  ...       166
          la=0 lb=0:     15 shell pairs
          la=1 lb=0:     15 shell pairs
          la=1 lb=1:      6 shell pairs
          la=2 lb=0:      5 shell pairs
          la=2 lb=1:      3 shell pairs
          la=2 lb=2:      1 shell pairs

Calculating one electron integrals          ... done (  0.0 sec)
Calculating RI/J V-Matrix + Cholesky decomp.... done (  0.0 sec)
Calculating Nuclear repulsion               ... done (  0.0 sec) ENN=      4.274125043271 Eh

SHARK setup successfully completed in   0.1 seconds

Maximum memory used throughout the entire GTOINT-calculation: 8.7 MB

Diagonalization of the overlap matrix:
Smallest eigenvalue                        ... 5.693e-02
Time for diagonalization                   ...    0.003 sec
Threshold for overlap eigenvalues          ... 1.000e-08
Number of eigenvalues below threshold      ... 0
Time for construction of square roots      ...    0.001 sec
Total time needed                          ...    0.004 sec

-------------------
DFT GRID GENERATION
-------------------

General Integration Accuracy     IntAcc      ... 4.388
Radial Grid Type                 RadialGrid  ... OptM3 with GC (2021)
Angular Grid (max. ang.)         AngularGrid ... 4 (Lebedev-302)
Angular grid pruning method      GridPruning ... 4 (adaptive)
Weight generation scheme         WeightScheme... Becke
Basis function cutoff            BFCut       ... 1.0000e-11
Integration weight cutoff        WCut        ... 1.0000e-14
Angular grids for H and He will be reduced by one unit
Partially contracted basis set               ... off
Rotationally invariant grid construction     ... off

Total number of grid points                  ...     9454
Total number of batches                      ...      148
Average number of points per batch           ...       63
Average number of grid points per atom       ...     4727
Time for grid setup =    0.055 sec

--------------
SCF ITERATIONS
--------------
ITER       Energy         Delta-E        Max-DP      RMS-DP      [F,P]     Damp
               ***  Starting incremental Fock matrix formation  ***
  0    -75.0975508529   0.000000000000 0.00062058  0.00006992  0.0014373 0.7000
  1    -75.0975582544  -0.000007401542 0.00052473  0.00005895  0.0010537 0.7000
                               ***Turning on DIIS***
  2    -75.0975633271  -0.000005072677 0.00125122  0.00014473  0.0007275 0.0000
  3    -75.0975744638  -0.000011136698 0.00014679  0.00001911  0.0001476 0.0000
  4    -75.0975745385  -0.000000074693 0.00010044  0.00001211  0.0001246 0.0000
  5    -75.0975745796  -0.000000041135 0.00003971  0.00000427  0.0000617 0.0000
  6    -75.0975745898  -0.000000010188 0.00000527  0.00000047  0.0000057 0.0000
                 **** Energy Check signals convergence ****

               *****************************************************
               *                     SUCCESS                       *
               *           SCF CONVERGED AFTER   7 CYCLES          *
               *****************************************************

Total Energy       :          -75.09757459 Eh           -2043.50889 eV
  Last Energy change         ...   -9.6506e-11  Tolerance :   1.0000e-08
  Last MAX-Density change    ...    7.0807e-07  Tolerance :   1.0000e-07
             **** THE GBW FILE WAS UPDATED (inputAdvance_COMPLETE.gbw) ****
             **** DENSITY inputAdvance_COMPLETE.scfp WAS UPDATED ****
             **** ENERGY FILE WAS UPDATED (inputAdvance_COMPLETE.en.tmp) ****
----------------------
UHF SPIN CONTAMINATION
----------------------

Warning: in a DFT calculation there is little theoretical justification to 
         calculate <S**2> as in Hartree-Fock theory. We will do it anyways
         but you should keep in mind that the values have only limited relevance

Expectation value of <S**2>     :     0.751576
Ideal value S*(S+1) for S=0.5   :     0.750000
Deviation                       :     0.001576

             **** THE GBW FILE WAS UPDATED (inputAdvance_COMPLETE.gbw) ****
             **** DENSITY inputAdvance_COMPLETE.scfp WAS UPDATED ****
Total SCF time: 0 days 0 hours 0 min 0 sec 

Maximum memory used throughout the entire SCF-calculation: 6.5 MB

-------------------------   --------------------
FINAL SINGLE POINT ENERGY       -75.097574589926
-------------------------   --------------------

------------------------------------------------------------------------------
                         ORCA SCF GRADIENT CALCULATION
------------------------------------------------------------------------------

Gradient of the Kohn-Sham DFT energy:
Kohn-Sham wavefunction type      ... UKS
Hartree-Fock exchange scaling    ...    0.000
Number of operators              ...    2
Number of atoms                  ...    2
Basis set dimensions             ...   19
Integral neglect threshold       ... 2.5e-11
Integral primitive cutoff        ... 2.5e-12
SHARK Integral package           ... ON

Nuc. rep. gradient       (SHARK) ... done (  0.0 sec)
HCore & Overlap gradient (SHARK) ... done (  0.0 sec)
RI-J gradient            (SHARK) ... done (  0.1 sec)
Exchange-correlation gradient    ... done

------------------
CARTESIAN GRADIENT
------------------

   1   O   :   -0.000047692    0.000000000    0.000000000
   2   H   :    0.000047692   -0.000000000   -0.000000000

Difference to translation invariance:
           :   -0.0000000000    0.0000000000    0.0000000000

Difference to rotation invariance:
           :    0.0000000000    0.0000000000   -0.0000000000

Norm of the cartesian gradient     ...    0.0000674472
RMS gradient                       ...    0.0000275352
MAX gradient                       ...    0.0000476924

-------
TIMINGS
-------

Total SCF gradient time            ...        0.174 sec

One electron gradient       ....       0.003 sec  (  1.7%)
RI-J Coulomb gradient       ....       0.052 sec  ( 29.9%)
XC gradient                 ....       0.049 sec  ( 28.2%)

Maximum memory used throughout the entire SCFGRAD-calculation: 5.1 MB
------------------------------------------------------------------------------
                         ORCA GEOMETRY RELAXATION STEP
------------------------------------------------------------------------------

Reading the OPT-File                    .... done
Getting information on internals        .... done
Copying old internal coords+grads       .... done
Making the new internal coordinates     .... (new redundants).... done
Validating the new internal coordinates .... (new redundants).... done
Calculating the B-matrix                .... done
Calculating the G,G- and P matrices     .... done
Transforming gradient to internals      .... done
Projecting the internal gradient        .... done
Number of atoms                         ....   2
Number of internal coordinates          ....   1
Current Energy                          ....   -75.097574590 Eh
Current gradient norm                   ....     0.000067447 Eh/bohr
Maximum allowed component of the step   ....  0.300
Current trust radius                    ....  0.300
Updating the Hessian (BFGS)             .... done
Forming the augmented Hessian           .... done
Diagonalizing the augmented Hessian     .... done
Last element of RFO vector              ....  0.999999994
Lowest eigenvalues of augmented Hessian:
 -0.000000005
Length of the computed step             ....  0.000106839
The final length of the internal step   ....  0.000106839
Converting the step to cartesian space:
 Initial RMS(Int)=    0.0001068389
Transforming coordinates:
 Iter   0:  RMS(Cart)=    0.0000308417 RMS(Int)=    0.0001068389
 Iter   1:  RMS(Cart)=    0.0000000000 RMS(Int)=    0.0000000000
done
Storing new coordinates                 .... done

                                .--------------------.
          ----------------------|Geometry convergence|-------------------------
          Item                value                   Tolerance       Converged
          ---------------------------------------------------------------------
          Energy change      -0.0000739470            0.0000300000      NO
          RMS gradient        0.0000476924            0.0005000000      YES
          MAX gradient        0.0000476924            0.0020000000      YES
          RMS step            0.0001068389            0.0070000000      YES
          MAX step            0.0001068389            0.0100000000      YES
          ........................................................
          Max(Bonds)      0.0001      Max(Angles)    0.00
          Max(Dihed)        0.00      Max(Improp)    0.00
          ---------------------------------------------------------------------

       Everything but the energy has converged. However, the energy
       appears to be close enough to convergence to make sure that the
       final evaluation at the new geometry represents the equilibrium energy.
       Convergence will therefore be signaled now


                    ***********************HURRAY********************
                    ***        THE OPTIMIZATION HAS CONVERGED     ***
                    *************************************************


    ---------------------------------------------------------------------------
                         Redundant Internal Coordinates

                          --- Optimized Parameters ---  
                            (Angstroem and degrees)

        Definition                    OldVal   dE/dq     Step     FinalVal
    ----------------------------------------------------------------------------
     1. B(H   1,O   0)                0.9905  0.000048 -0.0001    0.9904   
    ----------------------------------------------------------------------------
                 *******************************************************
                 *** FINAL ENERGY EVALUATION AT THE STATIONARY POINT ***
                 ***               (AFTER    2 CYCLES)               ***
                 *******************************************************
---------------------------------
CARTESIAN COORDINATES (ANGSTROEM)
---------------------------------
  O      0.004790    0.000000    0.000000
  H      0.995210    0.000000    0.000000

----------------------------
CARTESIAN COORDINATES (A.U.)
----------------------------
  NO LB      ZA    FRAG     MASS         X           Y           Z
   0 O     8.0000    0    15.999    0.009052    0.000000    0.000000
   1 H     1.0000    0     1.008    1.880674    0.000000    0.000000

--------------------------------
INTERNAL COORDINATES (ANGSTROEM)
--------------------------------
 O      0   0   0     0.000000000000     0.00000000     0.00000000
 H      1   0   0     0.990419320597     0.00000000     0.00000000

---------------------------
INTERNAL COORDINATES (A.U.)
---------------------------
 O      0   0   0     0.000000000000     0.00000000     0.00000000
 H      1   0   0     1.871621273673     0.00000000     0.00000000

---------------------
BASIS SET INFORMATION
---------------------
There are 2 groups of distinct atoms

 Group   1 Type O   : 7s4p1d contracted to 3s2p1d pattern {511/31/1}
 Group   2 Type H   : 4s1p contracted to 2s1p pattern {31/1}

Atom   0O    basis set group =>   1
Atom   1H    basis set group =>   2
---------------------------------
AUXILIARY/J BASIS SET INFORMATION
---------------------------------
There are 2 groups of distinct atoms

 Group   1 Type O   : 12s5p4d2f1g contracted to 6s4p3d1f1g pattern {711111/2111/211/2/1}
 Group   2 Type H   : 5s2p1d contracted to 3s1p1d pattern {311/2/1}

Atom   0O    basis set group =>   1
Atom   1H    basis set group =>   2
------------------------------------------------------------------------------
                           ORCA GTO INTEGRAL CALCULATION
                           -- RI-GTO INTEGRALS CHOSEN --
------------------------------------------------------------------------------
------------------------------------------------------------------------------
                   ___                                                        
                  /   \      - P O W E R E D   B Y -                         
                 /     \                                                     
                 |  |  |   _    _      __       _____    __    __             
                 |  |  |  | |  | |    /  \     |  _  \  |  |  /  |          
                  \  \/   | |  | |   /    \    | | | |  |  | /  /          
                 / \  \   | |__| |  /  /\  \   | |_| |  |  |/  /          
                |  |  |   |  __  | /  /__\  \  |    /   |      \           
                |  |  |   | |  | | |   __   |  |    \   |  |\   \          
                \     /   | |  | | |  |  |  |  | |\  \  |  | \   \       
                 \___/    |_|  |_| |__|  |__|  |_| \__\ |__|  \__/        
                                                                              
                      - O R C A' S   B I G   F R I E N D -                    
                                      &                                       
                       - I N T E G R A L  F E E D E R -                       
                                                                              
 v1 FN, 2020, v2 2021                                                         
------------------------------------------------------------------------------


Reading SHARK input file inputAdvance_COMPLETE.SHARKINP.tmp ... ok
----------------------
SHARK INTEGRAL PACKAGE
----------------------

Number of atoms                             ...      2
Number of basis functions                   ...     19
Number of shells                            ...      9
Maximum angular momentum                    ...      2
Integral batch strategy                     ... SHARK/LIBINT Hybrid
RI-J (if used) integral strategy            ... SPLIT-RIJ (Revised 2003 algorithm where possible)
Printlevel                                  ...      1
Contraction scheme used                     ... SEGMENTED contraction
Coulomb Range Separation                    ... NOT USED
Exchange Range Separation                   ... NOT USED
Finite Nucleus Model                        ... NOT USED
Auxiliary Coulomb fitting basis             ... AVAILABLE
   # of basis functions in Aux-J            ...     60
   # of shells in Aux-J                     ...     20
   Maximum angular momentum in Aux-J        ...      4
Auxiliary J/K fitting basis                 ... NOT available
Auxiliary Correlation fitting basis         ... NOT available
Auxiliary 'external' fitting basis          ... NOT available
Integral threshold                          ...     2.500000e-11
Primitive cut-off                           ...     2.500000e-12
Primitive pair pre-selection threshold      ...     2.500000e-12

Calculating pre-screening integrals         ... done (  0.0 sec) Dimension = 9
Organizing shell pair data                  ... done (  0.0 sec)
Shell pair information
Total number of shell pairs                 ...        45
Shell pairs after pre-screening             ...        45
Total number of primitive shell pairs       ...       169
Primitive shell pairs kept                  ...       166
          la=0 lb=0:     15 shell pairs
          la=1 lb=0:     15 shell pairs
          la=1 lb=1:      6 shell pairs
          la=2 lb=0:      5 shell pairs
          la=2 lb=1:      3 shell pairs
          la=2 lb=2:      1 shell pairs

Calculating one electron integrals          ... done (  0.0 sec)
Calculating RI/J V-Matrix + Cholesky decomp.... done (  0.0 sec)
Calculating Nuclear repulsion               ... done (  0.0 sec) ENN=      4.274369025685 Eh

SHARK setup successfully completed in   0.1 seconds

Maximum memory used throughout the entire GTOINT-calculation: 8.7 MB
-------------------------------------------------------------------------------
                                 ORCA SCF
-------------------------------------------------------------------------------

------------
SCF SETTINGS
------------
Hamiltonian:
 Density Functional     Method          .... DFT(GTOs)
 Exchange Functional    Exchange        .... Slater
   X-Alpha parameter    XAlpha          ....  0.666667
 Correlation Functional Correlation     .... VWN-5
 Gradients option       PostSCFGGA      .... off
   Density functional embedding theory  .... OFF
 RI-approximation to the Coulomb term is turned on
   Number of AuxJ basis functions       .... 60


General Settings:
 Integral files         IntName         .... inputAdvance_COMPLETE
 Hartree-Fock type      HFTyp           .... UHF
 Total Charge           Charge          ....    0
 Multiplicity           Mult            ....    2
 Number of Electrons    NEL             ....    9
 Basis Dimension        Dim             ....   19
 Nuclear Repulsion      ENuc            ....      4.2743690257 Eh

Convergence Acceleration:
 DIIS                   CNVDIIS         .... on
   Start iteration      DIISMaxIt       ....    12
   Startup error        DIISStart       ....  0.200000
   # of expansion vecs  DIISMaxEq       ....     5
   Bias factor          DIISBfac        ....   1.050
   Max. coefficient     DIISMaxC        ....  10.000
 Trust-Rad. Augm. Hess. CNVTRAH         .... auto
   Auto Start mean grad. ratio tolernc. ....  1.125000
   Auto Start start iteration           ....     1
   Auto Start num. interpolation iter.  ....    10
   Max. Number of Micro iterations      ....    16
   Max. Number of Macro iterations      .... Maxiter - #DIIS iter
   Number of Davidson start vectors     ....     2
   Converg. threshold I  (grad. norm)   ....   1.000e-05
   Converg. threshold II (energy diff.) ....   1.000e-08
   Grad. Scal. Fac. for Micro threshold ....   0.100
   Minimum threshold for Micro iter.    ....   0.010
   NR start threshold (gradient norm)   ....   0.001
   Initial trust radius                 ....   0.400
   Minimum AH scaling param. (alpha)    ....   1.000
   Maximum AH scaling param. (alpha)    .... 1000.000
   Orbital update algorithm             .... Taylor
   White noise on init. David. guess    .... on
   Maximum white noise                  ....   0.010
   Quad. conv. algorithm                .... NR
 SOSCF                  CNVSOSCF        .... off
 Level Shifting         CNVShift        .... on
   Level shift para.    LevelShift      ....    0.2500
   Turn off err/grad.   ShiftErr        ....    0.0010
 Zerner damping         CNVZerner       .... off
 Static damping         CNVDamp         .... on
   Fraction old density DampFac         ....    0.7000
   Max. Damping (<1)    DampMax         ....    0.9800
   Min. Damping (>=0)   DampMin         ....    0.0000
   Turn off err/grad.   DampErr         ....    0.1000
 Fernandez-Rico         CNVRico         .... off

SCF Procedure:
 Maximum # iterations   MaxIter         ....   500
 SCF integral mode      SCFMode         .... Direct
   Integral package                     .... SHARK and LIBINT hybrid scheme
 Reset frequency        DirectResetFreq ....    20
 Integral Threshold     Thresh          ....  2.500e-11 Eh
 Primitive CutOff       TCut            ....  2.500e-12 Eh

Convergence Tolerance:
 Convergence Check Mode ConvCheckMode   .... Total+1el-Energy
 Convergence forced     ConvForced      .... 0
 Energy Change          TolE            ....  1.000e-08 Eh
 1-El. energy change                    ....  1.000e-05 Eh
 DIIS Error             TolErr          ....  5.000e-07


Diagonalization of the overlap matrix:
Smallest eigenvalue                        ... 5.693e-02
Time for diagonalization                   ...    0.003 sec
Threshold for overlap eigenvalues          ... 1.000e-08
Number of eigenvalues below threshold      ... 0
Time for construction of square roots      ...    0.001 sec
Total time needed                          ...    0.004 sec

---------------------
INITIAL GUESS: MOREAD
---------------------
Guess MOs are being read from file: inputAdvance_COMPLETE.gbw
Input Geometry matches current geometry (good)
Input basis set matches current basis set (good)
MOs were renormalized
MOs were reorthogonalized (Cholesky)
                      ------------------
                      INITIAL GUESS DONE (   0.0 sec)
                      ------------------
-------------------
DFT GRID GENERATION
-------------------

General Integration Accuracy     IntAcc      ... 4.388
Radial Grid Type                 RadialGrid  ... OptM3 with GC (2021)
Angular Grid (max. ang.)         AngularGrid ... 4 (Lebedev-302)
Angular grid pruning method      GridPruning ... 4 (adaptive)
Weight generation scheme         WeightScheme... Becke
Basis function cutoff            BFCut       ... 1.0000e-11
Integration weight cutoff        WCut        ... 1.0000e-14
Angular grids for H and He will be reduced by one unit
Partially contracted basis set               ... off
Rotationally invariant grid construction     ... off

Total number of grid points                  ...     9454
Total number of batches                      ...      148
Average number of points per batch           ...       63
Average number of grid points per atom       ...     4727
Time for grid setup =    0.044 sec

--------------
SCF ITERATIONS
--------------
ITER       Energy         Delta-E        Max-DP      RMS-DP      [F,P]     Damp
               ***  Starting incremental Fock matrix formation  ***
  0    -75.0975745915   0.000000000000 0.00000392  0.00000042  0.0000087 0.7000
  1    -75.0975745918  -0.000000000268 0.00000332  0.00000035  0.0000063 0.7000
                               ***Turning on DIIS***
  2    -75.0975745920  -0.000000000184 0.00000789  0.00000087  0.0000043 0.0000
                            ***DIIS convergence achieved***

               *****************************************************
               *                     SUCCESS                       *
               *           SCF CONVERGED AFTER   3 CYCLES          *
               *****************************************************


----------------
TOTAL SCF ENERGY
----------------

Total Energy       :          -75.09757459 Eh           -2043.50889 eV

Components:
Nuclear Repulsion  :            4.27436903 Eh             116.31149 eV
Electronic Energy  :          -79.37194362 Eh           -2159.82039 eV
One Electron Energy:         -112.45350944 Eh           -3060.01556 eV
Two Electron Energy:           33.08156582 Eh             900.19517 eV

Virial components:
Potential Energy   :         -150.10468975 Eh           -4084.55626 eV
Kinetic Energy     :           75.00711516 Eh            2041.04737 eV
Virial Ratio       :            2.00120601


DFT components:
N(Alpha)           :        4.999999311074 electrons
N(Beta)            :        3.999999479869 electrons
N(Total)           :        8.999998790943 electrons
E(X)               :       -7.712990422595 Eh       
E(C)               :       -0.601460085425 Eh       
E(XC)              :       -8.314450508020 Eh       
DFET-embed. en.    :        0.000000000000 Eh       

---------------
SCF CONVERGENCE
---------------

  Last Energy change         ...   -4.0254e-10  Tolerance :   1.0000e-08
  Last MAX-Density change    ...    8.8440e-07  Tolerance :   1.0000e-07
  Last RMS-Density change    ...    1.1419e-07  Tolerance :   5.0000e-09
  Last DIIS Error            ...    9.2590e-07  Tolerance :   5.0000e-07

             **** THE GBW FILE WAS UPDATED (inputAdvance_COMPLETE.gbw) ****
             **** DENSITY inputAdvance_COMPLETE.scfp WAS UPDATED ****
             **** ENERGY FILE WAS UPDATED (inputAdvance_COMPLETE.en.tmp) ****
----------------------
UHF SPIN CONTAMINATION
----------------------

Warning: in a DFT calculation there is little theoretical justification to 
         calculate <S**2> as in Hartree-Fock theory. We will do it anyways
         but you should keep in mind that the values have only limited relevance

Expectation value of <S**2>     :     0.751576
Ideal value S*(S+1) for S=0.5   :     0.750000
Deviation                       :     0.001576

             **** THE GBW FILE WAS UPDATED (inputAdvance_COMPLETE.gbw) ****
             **** DENSITY inputAdvance_COMPLETE.scfp WAS UPDATED ****
----------------
ORBITAL ENERGIES
----------------
                 SPIN UP ORBITALS
  NO   OCC          E(Eh)            E(eV) 
   0   1.0000     -18.658980      -507.7367 
   1   1.0000      -0.881488       -23.9865 
   2   1.0000      -0.402180       -10.9439 
   3   1.0000      -0.335877        -9.1397 
   4   1.0000      -0.267345        -7.2748 
   5   0.0000       0.027324         0.7435 
   6   0.0000       0.509206        13.8562 
   7   0.0000       0.784121        21.3370 
   8   0.0000       0.820982        22.3401 
   9   0.0000       0.828937        22.5565 
  10   0.0000       0.973382        26.4871 
  11   0.0000       1.327916        36.1344 
  12   0.0000       1.346391        36.6372 
  13   0.0000       2.042388        55.5762 
  14   0.0000       2.489896        67.7535 
  15   0.0000       2.491239        67.7901 
  16   0.0000       2.788460        75.8778 
  17   0.0000       2.839173        77.2578 
  18   0.0000       3.528852        96.0250 

                 SPIN DOWN ORBITALS
  NO   OCC          E(Eh)            E(eV) 
   0   1.0000     -18.633359      -507.0395 
   1   1.0000      -0.830238       -22.5919 
   2   1.0000      -0.372826       -10.1451 
   3   1.0000      -0.235691        -6.4135 
   4   0.0000      -0.233510        -6.3541 
   5   0.0000       0.037316         1.0154 
   6   0.0000       0.517540        14.0830 
   7   0.0000       0.847469        23.0608 
   8   0.0000       0.852036        23.1851 
   9   0.0000       0.858437        23.3593 
  10   0.0000       1.002230        27.2721 
  11   0.0000       1.344568        36.5876 
  12   0.0000       1.348491        36.6943 
  13   0.0000       2.060344        56.0648 
  14   0.0000       2.561198        69.6937 
  15   0.0000       2.567574        69.8672 
  16   0.0000       2.855194        77.6938 
  17   0.0000       2.859946        77.8231 
  18   0.0000       3.560643        96.8900 

                    ********************************
                    * MULLIKEN POPULATION ANALYSIS *
                    ********************************

--------------------------------------------
MULLIKEN ATOMIC CHARGES AND SPIN POPULATIONS
--------------------------------------------
   0 O :   -0.202103    1.026294
   1 H :    0.202103   -0.026294
Sum of atomic charges         :   -0.0000000
Sum of atomic spin populations:    1.0000000

-----------------------------------------------------
MULLIKEN REDUCED ORBITAL CHARGES AND SPIN POPULATIONS
-----------------------------------------------------
CHARGE
  0 O s       :     3.883138  s :     3.883138
      pz      :     0.990983  p :     4.312683
      px      :     1.343691
      py      :     1.978009
      dz2     :     0.001317  d :     0.006282
      dxz     :     0.000455
      dyz     :     0.000000
      dx2y2   :     0.003630
      dxy     :     0.000880
  1 H s       :     0.736682  s :     0.736682
      pz      :     0.008649  p :     0.061215
      px      :     0.031543
      py      :     0.021023

SPIN
  0 O s       :     0.008202  s :     0.008202
      pz      :     0.990810  p :     1.017475
      px      :     0.025731
      py      :     0.000934
      dz2     :     0.000092  d :     0.000617
      dxz     :     0.000455
      dyz     :     0.000000
      dx2y2   :     0.000048
      dxy     :     0.000022
  1 H s       :    -0.034293  s :    -0.034293
      pz      :     0.008647  p :     0.007998
      px      :     0.000219
      py      :    -0.000869


                     *******************************
                     * LOEWDIN POPULATION ANALYSIS *
                     *******************************

-------------------------------------------
LOEWDIN ATOMIC CHARGES AND SPIN POPULATIONS
-------------------------------------------
   0 O :   -0.080986    0.999607
   1 H :    0.080986    0.000393

----------------------------------------------------
LOEWDIN REDUCED ORBITAL CHARGES AND SPIN POPULATIONS
----------------------------------------------------
CHARGE
  0 O s       :     3.707285  s :     3.707285
      pz      :     0.976838  p :     4.363385
      px      :     1.437989
      py      :     1.948558
      dz2     :     0.002750  d :     0.010317
      dxz     :     0.000186
      dyz     :     0.000000
      dx2y2   :     0.007031
      dxy     :     0.000350
  1 H s       :     0.749461  s :     0.749461
      pz      :     0.023063  p :     0.169553
      px      :     0.095484
      py      :     0.051005

SPIN
  0 O s       :     0.005257  s :     0.005257
      pz      :     0.976668  p :     0.994193
      px      :     0.016257
      py      :     0.001268
      dz2     :     0.000258  d :     0.000157
      dxz     :     0.000186
      dyz     :     0.000000
      dx2y2   :    -0.000302
      dxy     :     0.000015
  1 H s       :    -0.024169  s :    -0.024169
      pz      :     0.023059  p :     0.024563
      px      :     0.002700
      py      :    -0.001196


                      *****************************
                      * MAYER POPULATION ANALYSIS *
                      *****************************

  NA   - Mulliken gross atomic population
  ZA   - Total nuclear charge
  QA   - Mulliken gross atomic charge
  VA   - Mayer's total valence
  BVA  - Mayer's bonded valence
  FA   - Mayer's free valence

  ATOM       NA         ZA         QA         VA         BVA        FA
  0 O      8.2021     8.0000    -0.2021     1.9706     0.9854     0.9852
  1 H      0.7979     1.0000     0.2021     0.9868     0.9854     0.0014

  Mayer bond orders larger than 0.100000
B(  0-O ,  1-H ) :   0.9854 

-------
TIMINGS
-------

Total SCF time: 0 days 0 hours 0 min 0 sec 

Total time                  ....       0.365 sec
Sum of individual times     ....       0.250 sec  ( 68.5%)

Fock matrix formation       ....       0.164 sec  ( 44.9%)
  Split-RI-J                ....       0.017 sec  ( 10.4% of F)
  XC integration            ....       0.087 sec  ( 53.0% of F)
    Basis function eval.    ....       0.018 sec  ( 20.7% of XC)
    Density eval.           ....       0.005 sec  (  5.7% of XC)
    XC-Functional eval.     ....       0.021 sec  ( 24.1% of XC)
    XC-Potential eval.      ....       0.006 sec  (  6.9% of XC)
Diagonalization             ....       0.002 sec  (  0.5%)
Density matrix formation    ....       0.000 sec  (  0.0%)
Population analysis         ....       0.028 sec  (  7.7%)
Initial guess               ....       0.002 sec  (  0.5%)
Orbital Transformation      ....       0.000 sec  (  0.0%)
Orbital Orthonormalization  ....       0.000 sec  (  0.0%)
DIIS solution               ....       0.010 sec  (  2.7%)
Grid generation             ....       0.044 sec  ( 12.1%)

Maximum memory used throughout the entire SCF-calculation: 6.5 MB

-------------------------   --------------------
FINAL SINGLE POINT ENERGY       -75.097574592354
-------------------------   --------------------

                                *** OPTIMIZATION RUN DONE ***

                            ***************************************
                            *     ORCA property calculations      *
                            ***************************************

                                    ---------------------
                                    Active property flags
                                    ---------------------
   (+) Dipole Moment
   (+) Polarizability


------------------------------------------------------------------------------
                       ORCA ELECTRIC PROPERTIES CALCULATION
------------------------------------------------------------------------------

Dipole Moment Calculation                       ... on
Quadrupole Moment Calculation                   ... off
Polarizability Calculation                      ... Analytic (CP-SCF)
GBWName                                         ... inputAdvance_COMPLETE.gbw
Electron density                                ... inputAdvance_COMPLETE.scfp
The origin for moment calculation is the CENTER OF MASS  = ( 0.119983,  0.000000  0.000000)

-------------
DIPOLE MOMENT
-------------
                                X             Y             Z
Electronic contribution:     -0.18408       0.00000      -0.00000
Nuclear contribution   :      0.87325       0.00000       0.00000
                        -----------------------------------------
Total Dipole Moment    :      0.68917       0.00000      -0.00000
                        -----------------------------------------
Magnitude (a.u.)       :      0.68917
Magnitude (Debye)      :      1.75173



--------------------
Rotational spectrum 
--------------------
 
Rotational constants in cm-1:     0.000000    18.123123    18.123123 
Rotational constants in MHz :     0.000000 543317.554994 543317.554994 

 Dipole components along the rotational axes: 
x,y,z [a.u.] :     0.689171     0.000000    -0.000000 
x,y,z [Debye]:     1.751734     0.000000    -0.000000 

 
Transforming and storing MO dipole integrals   ... done

                ... starting polarizability calculation

The origin for moment calculation is the CENTER OF MASS  = ( 0.119983,  0.000000  0.000000)
Opening the Dipole integral file               ... (inputAdvance_COMPLETE.dmo.tmp) done
Reading Dipole-MO integrals                    ... done
Solving CP-SCF equations                       ... 
------------------------------------------------------------------------------
                           ORCA CP-SCF CALCULATION
------------------------------------------------------------------------------

Input orbitals are from        ... inputAdvance_COMPLETE.gbw
Input Perturbation             ... inputAdvance_COMPLETE.cpv.tmp
Wavefunction output            ... inputAdvance_COMPLETE.cpu.tmp
Perturbation mode              ... Real perturbation (singlet)
Solver                         ... POPLE
Max. number of iterations      ... 64
Convergence tolerance          ... 1.000e-04
Integral handling              ... Direct
DFT GridXC                     ... 1
Number of perturbations        ... 3
Number of operators            ... 2
Orbital ranges used for CP-SCF:
 Operator 0:  Orbitals   0...  4  to   5... 18
 Operator 1:  Orbitals   0...  3  to   4... 18
Variables per perturbation     ... 130
DFT calculation                         ... on
XC functional terms                     ... on
Exchange functional (SCF)               ... Slater
Exchange functional (CP-SCF)            ... Slater
   X-Alpha parameter    XAlpha (SCF)    ...  0.666667
   X-Alpha parameter    XAlpha (CP-SCF) ...  0.666667
Correlation functional (SCF)            ... VWN-5
Correlation functional (CP-SCF)         ... VWN-5

CP-SCF GRID
-----------

General Integration Accuracy     IntAcc      ... 3.467
Radial Grid Type                 RadialGrid  ... OptM3 with GC (2021)
Angular Grid (max. ang.)         AngularGrid ... 1 (Lebedev-50)
Angular grid pruning method      GridPruning ... 4 (adaptive)
Weight generation scheme         WeightScheme... Becke
Basis function cutoff            BFCut       ... 1.0000e-11
Integration weight cutoff        WCut        ... 1.0000e-14
Angular grids for H and He will be reduced by one unit
Partially contracted basis set               ... off
Rotationally invariant grid construction     ... off

Total number of grid points                  ...     1400
Total number of batches                      ...       23
Average number of points per batch           ...       60
Average number of grid points per atom       ...      700

Recalculating density on grid  ... done
Calculating the xc-kernel      ... done
Memory available               ... 1020.6 MB
Memory needed per perturbation ...   0.2 MB
Perturbations treated per batch... 3
Number of batches              ... 1
     CP-SCF ITERATION   0:   1.9976e+00 (   0.0 sec   0/  3 done)
     CP-SCF ITERATION   1:   1.3853e-01 (   0.0 sec   0/  3 done)
     CP-SCF ITERATION   2:   1.4300e-02 (   0.0 sec   0/  3 done)
     CP-SCF ITERATION   3:   1.6207e-03 (   0.0 sec   0/  3 done)
     CP-SCF ITERATION   4:   2.3739e-04 (   0.0 sec   2/  3 done)
     CP-SCF ITERATION   5:   4.5910e-04 (   0.0 sec   2/  3 done)
     CP-SCF ITERATION   6:   2.4972e-05 (   0.0 sec   3/  3 done)
                    *** THE CP-SCF HAS CONVERGED ***
done
Reading CP-SCF coefficients                    ... done
Doing the polarizability tensor                ... done
Cleaning up                                    ... done

-------------------------
THE POLARIZABILITY TENSOR
-------------------------

The raw cartesian tensor (atomic units):
    6.18505     -0.00000      0.00000  
   -0.00000      2.37460     -0.00425  
    0.00000     -0.00425      2.82750  
diagonalized tensor: 
    2.37456      2.82754      6.18505  

    0.00000     -0.00000     -1.00000  
    0.99996     -0.00937      0.00000  
    0.00937      0.99996     -0.00000  

Isotropic polarizability :   3.79572


----------------------------------------------------------------------------
                           ORCA NUMERICAL FREQUENCIES
----------------------------------------------------------------------------

Number of atoms                ... 2
Central differences            ... used
Number of displacements        ... 12
Numerical increment            ... 5.000e-03 bohr
IR-spectrum generation         ... on
Raman-spectrum generation      ... on
Polarizability calculation     ... 1
Surface Crossing Hessian       ... off

The output will be reduced. Please look at the following files:
SCF program output             ... >inputAdvance_COMPLETE.lastscf
Integral program output        ... >inputAdvance_COMPLETE.lastint
Gradient program output        ... >inputAdvance_COMPLETE.lastgrad
Dipole moment program output   ... >inputAdvance_COMPLETE.lastmom
AutoCI program output          ... >inputAdvance_COMPLETE.lastautoci

	<< Calculating on displaced geometry   1 (of  12) >>
	<< Calculating on displaced geometry   2 (of  12) >>
	<< Calculating on displaced geometry   3 (of  12) >>
	<< Calculating on displaced geometry   4 (of  12) >>
	<< Calculating on displaced geometry   5 (of  12) >>
	<< Calculating on displaced geometry   6 (of  12) >>
	<< Calculating on displaced geometry   7 (of  12) >>
	<< Calculating on displaced geometry   8 (of  12) >>
	<< Calculating on displaced geometry   9 (of  12) >>
	<< Calculating on displaced geometry  10 (of  12) >>
	<< Calculating on displaced geometry  11 (of  12) >>
	<< Calculating on displaced geometry  12 (of  12) >>

-----------------------
VIBRATIONAL FREQUENCIES
-----------------------

Scaling factor for frequencies =  1.000000000 (already applied!)

   0:         0.00 cm**-1
   1:         0.00 cm**-1
   2:         0.00 cm**-1
   3:         0.00 cm**-1
   4:         0.00 cm**-1
   5:      3586.33 cm**-1


------------
NORMAL MODES
------------

These modes are the cartesian displacements weighted by the diagonal matrix
M(i,i)=1/sqrt(m[i]) where m[i] is the mass of the displaced atom
Thus, these vectors are normalized but *not* orthogonal

                  0          1          2          3          4          5    
      0       0.000000   0.000000   0.000000   0.000000   0.000000  -0.062879
      1       0.000000   0.000000   0.000000   0.000000   0.000000   0.000000
      2       0.000000   0.000000   0.000000   0.000000   0.000000   0.000000
      3       0.000000   0.000000   0.000000   0.000000   0.000000   0.998021
      4       0.000000   0.000000   0.000000   0.000000   0.000000   0.000000
      5       0.000000   0.000000   0.000000   0.000000   0.000000   0.000000


-----------
IR SPECTRUM
-----------

 Mode   freq       eps      Int      T**2         TX        TY        TZ
       cm**-1   L/(mol*cm) km/mol    a.u.
----------------------------------------------------------------------------
  5:   3586.33   0.001663    8.40  0.000145  ( 0.012028 -0.000000 -0.000000)

* The epsilon (eps) is given for a Dirac delta lineshape.
** The dipole moment derivative (T) already includes vibrational overlap.

--------------
RAMAN SPECTRUM  
--------------

 Mode    freq (cm**-1)   Activity   Depolarization
-------------------------------------------------------------------
   5:      3586.33     52.756460      0.370775

The first frequency considered to be a vibration is 5
The total number of vibrations considered is 1


--------------------------
THERMOCHEMISTRY AT 298.15K
--------------------------

Temperature         ... 298.15 K
Pressure            ... 1.00 atm
Total Mass          ... 17.01 AMU
The molecule is recognized as being linear

Throughout the following assumptions are being made:
  (1) The electronic state is orbitally nondegenerate
      but the spin degeneracy is treated
  (2) There are no thermally accessible electronically excited states
  (3) Hindered rotations indicated by low frequency modes are not
      treated as such but are treated as vibrations and this may
      cause some error
  (4) All equations used are the standard statistical mechanics
      equations for an ideal gas
  (5) All vibrations are strictly harmonic

freq.    3586.33  E(vib)   ...       0.00 

------------
INNER ENERGY
------------

The inner energy is: U= E(el) + E(ZPE) + E(vib) + E(rot) + E(trans)
    E(el)   - is the total energy from the electronic structure calculation
              = E(kin-el) + E(nuc-el) + E(el-el) + E(nuc-nuc)
    E(ZPE)  - the the zero temperature vibrational energy from the frequency calculation
    E(vib)  - the the finite temperature correction to E(ZPE) due to population
              of excited vibrational states
    E(rot)  - is the rotational thermal energy
    E(trans)- is the translational thermal energy

Summary of contributions to the inner energy U:
Electronic energy                ...    -75.09757459 Eh
Zero point energy                ...      0.00817025 Eh       5.13 kcal/mol
Thermal vibrational correction   ...      0.00000000 Eh       0.00 kcal/mol
Thermal rotational correction    ...      0.00094418 Eh       0.59 kcal/mol
Thermal translational correction ...      0.00141627 Eh       0.89 kcal/mol
-----------------------------------------------------------------------
Total thermal energy                    -75.08704388 Eh


Summary of corrections to the electronic energy:
(perhaps to be used in another calculation)
Total thermal correction                  0.00236045 Eh       1.48 kcal/mol
Non-thermal (ZPE) correction              0.00817025 Eh       5.13 kcal/mol
-----------------------------------------------------------------------
Total correction                          0.01053071 Eh       6.61 kcal/mol


--------
ENTHALPY
--------

The enthalpy is H = U + kB*T
                kB is Boltzmann's constant
Total free energy                 ...    -75.08704388 Eh 
Thermal Enthalpy correction       ...      0.00094421 Eh       0.59 kcal/mol
-----------------------------------------------------------------------
Total Enthalpy                    ...    -75.08609968 Eh


Note: Rotational entropy computed according to Herzberg 
Infrared and Raman Spectra, Chapter V,1, Van Nostrand Reinhold, 1945 
Point Group:  Cinfv, Symmetry Number:   1  
Rotational constants in cm-1:     0.000000    18.123123    18.123123 

Vibrational entropy computed according to the QRRHO of S. Grimme
Chem.Eur.J. 2012 18 9955


-------
ENTROPY
-------

The entropy contributions are T*S = T*(S(el)+S(vib)+S(rot)+S(trans))
     S(el)   - electronic entropy
     S(vib)  - vibrational entropy
     S(rot)  - rotational entropy
     S(trans)- translational entropy
The entropies will be listed as multiplied by the temperature to get
units of energy

Electronic entropy                ...      0.00065446 Eh      0.41 kcal/mol
Vibrational entropy               ...      0.00000000 Eh      0.00 kcal/mol
Rotational entropy                ...      0.00324479 Eh      2.04 kcal/mol
Translational entropy             ...      0.01636225 Eh     10.27 kcal/mol
-----------------------------------------------------------------------
Final entropy term                ...      0.02026150 Eh     12.71 kcal/mol


-------------------
GIBBS FREE ENERGY
-------------------

The Gibbs free energy is G = H - T*S

Total enthalpy                    ...    -75.08609968 Eh 
Total entropy correction          ...     -0.02026150 Eh    -12.71 kcal/mol
-----------------------------------------------------------------------
Final Gibbs free energy         ...    -75.10636118 Eh

For completeness - the Gibbs free energy minus the electronic energy
G-E(el)                           ...     -0.00878659 Eh     -5.51 kcal/mol



Timings for individual modules:

Sum of individual times         ...      194.250 sec (=   3.238 min)
GTO integral calculation        ...        5.732 sec (=   0.096 min)   3.0 %
SCF iterations                  ...        2.779 sec (=   0.046 min)   1.4 %
Solution of CP-SCF eqns.        ...        0.118 sec (=   0.002 min)   0.1 %
SCF Gradient evaluation         ...        0.520 sec (=   0.009 min)   0.3 %
Geometry relaxation             ...        5.134 sec (=   0.086 min)   2.6 %
Numerical frequency calculation ...      179.967 sec (=   2.999 min)  92.6 %
                             ****ORCA TERMINATED NORMALLY****
TOTAL RUN TIME: 0 days 0 hours 3 minutes 13 seconds 894 msec
