
                                 *****************
                                 * O   R   C   A *
                                 *****************

                                            #,                                       
                                            ###                                      
                                            ####                                     
                                            #####                                    
                                            ######                                   
                                           ########,                                 
                                     ,,################,,,,,                         
                               ,,#################################,,                 
                          ,,##########################################,,             
                       ,#########################################, ''#####,          
                    ,#############################################,,   '####,        
                  ,##################################################,,,,####,       
                ,###########''''           ''''###############################       
              ,#####''   ,,,,##########,,,,          '''####'''          '####       
            ,##' ,,,,###########################,,,                        '##       
           ' ,,###''''                  '''############,,,                           
         ,,##''                                '''############,,,,        ,,,,,,###''
      ,#''                                            '''#######################'''  
     '                                                          ''''####''''         
             ,#######,   #######,   ,#######,      ##                                
            ,#'     '#,  ##    ##  ,#'     '#,    #''#        ######   ,####,        
            ##       ##  ##   ,#'  ##            #'  '#       #        #'  '#        
            ##       ##  #######   ##           ,######,      #####,   #    #        
            '#,     ,#'  ##    ##  '#,     ,#' ,#      #,         ##   #,  ,#        
             '#######'   ##     ##  '#######'  #'      '#     #####' # '####'        



                  #######################################################
                  #                        -***-                        #
                  #          Department of theory and spectroscopy      #
                  #    Directorship and core code : Frank Neese         #
                  #        Max Planck Institute fuer Kohlenforschung    #
                  #                Kaiser Wilhelm Platz 1               #
                  #                 D-45470 Muelheim/Ruhr               #
                  #                      Germany                        #
                  #                                                     #
                  #                  All rights reserved                #
                  #                        -***-                        #
                  #######################################################


                         Program Version 5.0.3 -  RELEASE  -


 With contributions from (in alphabetic order):
   Daniel Aravena         : Magnetic Suceptibility
   Michael Atanasov       : Ab Initio Ligand Field Theory (pilot matlab implementation)
   Alexander A. Auer      : GIAO ZORA, VPT2 properties, NMR spectrum
   Ute Becker             : Parallelization
   Giovanni Bistoni       : ED, misc. LED, open-shell LED, HFLD
   Martin Brehm           : Molecular dynamics
   Dmytro Bykov           : SCF Hessian
   Vijay G. Chilkuri      : MRCI spin determinant printing, contributions to CSF-ICE
   Dipayan Datta          : RHF DLPNO-CCSD density
   Achintya Kumar Dutta   : EOM-CC, STEOM-CC
   Dmitry Ganyushin       : Spin-Orbit,Spin-Spin,Magnetic field MRCI
   Miquel Garcia          : C-PCM and meta-GGA Hessian, CC/C-PCM, Gaussian charge scheme
   Yang Guo               : DLPNO-NEVPT2, F12-NEVPT2, CIM, IAO-localization
   Andreas Hansen         : Spin unrestricted coupled pair/coupled cluster methods
   Benjamin Helmich-Paris : MC-RPA, TRAH-SCF, COSX integrals
   Lee Huntington         : MR-EOM, pCC
   Robert Izsak           : Overlap fitted RIJCOSX, COSX-SCS-MP3, EOM
   Marcus Kettner         : VPT2
   Christian Kollmar      : KDIIS, OOCD, Brueckner-CCSD(T), CCSD density, CASPT2, CASPT2-K
   Simone Kossmann        : Meta GGA functionals, TD-DFT gradient, OOMP2, MP2 Hessian
   Martin Krupicka        : Initial AUTO-CI
   Lucas Lang             : DCDCAS
   Marvin Lechner         : AUTO-CI (C++ implementation), FIC-MRCC
   Dagmar Lenk            : GEPOL surface, SMD
   Dimitrios Liakos       : Extrapolation schemes; Compound Job, initial MDCI parallelization
   Dimitrios Manganas     : Further ROCIS development; embedding schemes
   Dimitrios Pantazis     : SARC Basis sets
   Anastasios Papadopoulos: AUTO-CI, single reference methods and gradients
   Taras Petrenko         : DFT Hessian,TD-DFT gradient, ASA, ECA, R-Raman, ABS, FL, XAS/XES, NRVS
   Peter Pinski           : DLPNO-MP2, DLPNO-MP2 Gradient
   Christoph Reimann      : Effective Core Potentials
   Marius Retegan         : Local ZFS, SOC
   Christoph Riplinger    : Optimizer, TS searches, QM/MM, DLPNO-CCSD(T), (RO)-DLPNO pert. Triples
   Tobias Risthaus        : Range-separated hybrids, TD-DFT gradient, RPA, STAB
   Michael Roemelt        : Original ROCIS implementation
   Masaaki Saitow         : Open-shell DLPNO-CCSD energy and density
   Barbara Sandhoefer     : DKH picture change effects
   Avijit Sen             : IP-ROCIS
   Kantharuban Sivalingam : CASSCF convergence, NEVPT2, FIC-MRCI
   Bernardo de Souza      : ESD, SOC TD-DFT
   Georgi Stoychev        : AutoAux, RI-MP2 NMR, DLPNO-MP2 response
   Willem Van den Heuvel  : Paramagnetic NMR
   Boris Wezisla          : Elementary symmetry handling
   Frank Wennmohs         : Technical directorship


 We gratefully acknowledge several colleagues who have allowed us to
 interface, adapt or use parts of their codes:
   Stefan Grimme, W. Hujo, H. Kruse, P. Pracht,  : VdW corrections, initial TS optimization,
                  C. Bannwarth, S. Ehlert          DFT functionals, gCP, sTDA/sTD-DF
   Ed Valeev, F. Pavosevic, A. Kumar             : LibInt (2-el integral package), F12 methods
   Garnet Chan, S. Sharma, J. Yang, R. Olivares  : DMRG
   Ulf Ekstrom                                   : XCFun DFT Library
   Mihaly Kallay                                 : mrcc  (arbitrary order and MRCC methods)
   Jiri Pittner, Ondrej Demel                    : Mk-CCSD
   Frank Weinhold                                : gennbo (NPA and NBO analysis)
   Christopher J. Cramer and Donald G. Truhlar   : smd solvation model
   Lars Goerigk                                  : TD-DFT with DH, B97 family of functionals
   V. Asgeirsson, H. Jonsson                     : NEB implementation
   FAccTs GmbH                                   : IRC, NEB, NEB-TS, DLPNO-Multilevel, CI-OPT
                                                   MM, QMMM, 2- and 3-layer-ONIOM, Crystal-QMMM,
                                                   LR-CPCM, SF, NACMEs, symmetry and pop. for TD-DFT,
                                                   nearIR, NL-DFT gradient (VV10), updates on ESD,
                                                   ML-optimized integration grids
   S Lehtola, MJT Oliveira, MAL Marques          : LibXC Library
   Liviu Ungur et al                             : ANISO software


 Your calculation uses the libint2 library for the computation of 2-el integrals
 For citations please refer to: http://libint.valeyev.net

 Your ORCA version has been built with support for libXC version: 5.1.0
 For citations please refer to: https://tddft.org/programs/libxc/

 This ORCA versions uses:
   CBLAS   interface :  Fast vector & matrix operations
   LAPACKE interface :  Fast linear algebra routines
   Shared memory     :  Shared parallel matrices


SCAN-COORDS
================================================================================

----- Orbital basis set information -----
Your calculation utilizes the basis: def2-TZVP
   F. Weigend and R. Ahlrichs, Phys. Chem. Chem. Phys. 7, 3297 (2005).

----- AuxJ basis set information -----
Your calculation utilizes the auxiliary basis: def2/J
   F. Weigend, Phys. Chem. Chem. Phys. 8, 1057 (2006).

================================================================================
                                        WARNINGS
                       Please study these warnings very carefully!
================================================================================

WARNING: Gradients needed for Numerical Frequencies
  ===> : Setting RunTyp to EnGrad

WARNING: The environment variable RSH_COMMAND is not set!
  ===> : All Displacements for the Numerical Hessian or Gradient calculation
         will be started on localhost

INFO   : the flag for use of the SHARK integral package has been found!

================================================================================
                                       INPUT FILE
================================================================================
NAME = C2N2_60.inp
|  1> ! PAL5 PBE0 NumFreq
|  2> %method
|  3>         method DFT
|  4>         runtyp Energy
|  5> end
|  6> %basis
|  7>         basis "def2-TZVP"
|  8> end
|  9> %coords
| 10>         CTyp xyz
| 11>         Charge 0
| 12>         Mult 1
| 13>         Units Angs
| 14>         coords
| 15> 	#73.3
| 16> 	C      0.901162    0.213223   -0.028373
| 17> 	C      2.433052    0.225083   -0.148833
| 18> 	H      0.552152   -0.769852    0.295509
| 19> 	H      0.441622    0.444426   -0.991963
| 20> 	H      0.570738    0.956346    0.700881
| 21> 	H      2.763812   -0.521759   -0.874150
| 22> 	H      2.781611    1.206533   -0.477840
| 23> 	H      2.892631   -0.000931    0.815945
| 24> 	end
| 25> end
| 26> %eprnmr
| 27>         NMRShielding 1
| 28>         Nuclei = all C {shift}
| 29>         Nuclei = all H {shift}
| 30> endd                         ****END OF INPUT****
================================================================================

                     *******************************
                     * Energy+Gradient Calculation *
                     *******************************

---------------------------------
CARTESIAN COORDINATES (ANGSTROEM)
---------------------------------
  C      0.901162    0.213223   -0.028373
  C      2.433052    0.225083   -0.148833
  H      0.552152   -0.769852    0.295509
  H      0.441622    0.444426   -0.991963
  H      0.570738    0.956346    0.700881
  H      2.763812   -0.521759   -0.874150
  H      2.781611    1.206533   -0.477840
  H      2.892631   -0.000931    0.815945

----------------------------
CARTESIAN COORDINATES (A.U.)
----------------------------
  NO LB      ZA    FRAG     MASS         X           Y           Z
   0 C     6.0000    0    12.011    1.702949    0.402933   -0.053617
   1 C     6.0000    0    12.011    4.597802    0.425345   -0.281254
   2 H     1.0000    0     1.008    1.043416   -1.454809    0.558431
   3 H     1.0000    0     1.008    0.834545    0.839843   -1.874538
   4 H     1.0000    0     1.008    1.078539    1.807232    1.324473
   5 H     1.0000    0     1.008    5.222848   -0.985982   -1.651904
   6 H     1.0000    0     1.008    5.256483    2.280017   -0.902987
   7 H     1.0000    0     1.008    5.466280   -0.001759    1.541913

--------------------------------
INTERNAL COORDINATES (ANGSTROEM)
--------------------------------
 C      0   0   0     0.000000000000     0.00000000     0.00000000
 C      1   0   0     1.536664648939     0.00000000     0.00000000
 H      1   2   0     1.092311304367   110.40856623     0.00000000
 H      1   2   3     1.092308347908   110.40241745   240.00054657
 H      1   2   3     1.092347568048   110.40373207   120.00176628
 H      2   1   3     1.092364362771   110.40327172    59.69456992
 H      2   1   3     1.092237650436   110.40662380   179.69806720
 H      2   1   3     1.092287404817   110.40203133   299.70153090

---------------------------
INTERNAL COORDINATES (A.U.)
---------------------------
 C      0   0   0     0.000000000000     0.00000000     0.00000000
 C      1   0   0     2.903875346174     0.00000000     0.00000000
 H      1   2   0     2.064169218241   110.40856623     0.00000000
 H      1   2   3     2.064163631342   110.40241745   240.00054657
 H      1   2   3     2.064237746666   110.40373207   120.00176628
 H      2   1   3     2.064269484093   110.40327172    59.69456992
 H      2   1   3     2.064030032482   110.40662380   179.69806720
 H      2   1   3     2.064124054635   110.40203133   299.70153090

---------------------
BASIS SET INFORMATION
---------------------
There are 2 groups of distinct atoms

 Group   1 Type C   : 11s6p2d1f contracted to 5s3p2d1f pattern {62111/411/11/1}
 Group   2 Type H   : 5s1p contracted to 3s1p pattern {311/1}

Atom   0C    basis set group =>   1
Atom   1C    basis set group =>   1
Atom   2H    basis set group =>   2
Atom   3H    basis set group =>   2
Atom   4H    basis set group =>   2
Atom   5H    basis set group =>   2
Atom   6H    basis set group =>   2
Atom   7H    basis set group =>   2
---------------------------------
AUXILIARY/J BASIS SET INFORMATION
---------------------------------
There are 2 groups of distinct atoms

 Group   1 Type C   : 12s5p4d2f1g contracted to 6s4p3d1f1g pattern {711111/2111/211/2/1}
 Group   2 Type H   : 5s2p1d contracted to 3s1p1d pattern {311/2/1}

Atom   0C    basis set group =>   1
Atom   1C    basis set group =>   1
Atom   2H    basis set group =>   2
Atom   3H    basis set group =>   2
Atom   4H    basis set group =>   2
Atom   5H    basis set group =>   2
Atom   6H    basis set group =>   2
Atom   7H    basis set group =>   2


           ************************************************************
           *        Program running with 5 parallel MPI-processes     *
           *              working on a common directory               *
           ************************************************************
------------------------------------------------------------------------------
                           ORCA GTO INTEGRAL CALCULATION
                           -- RI-GTO INTEGRALS CHOSEN --
------------------------------------------------------------------------------
------------------------------------------------------------------------------
                   ___                                                        
                  /   \      - P O W E R E D   B Y -                         
                 /     \                                                     
                 |  |  |   _    _      __       _____    __    __             
                 |  |  |  | |  | |    /  \     |  _  \  |  |  /  |          
                  \  \/   | |  | |   /    \    | | | |  |  | /  /          
                 / \  \   | |__| |  /  /\  \   | |_| |  |  |/  /          
                |  |  |   |  __  | /  /__\  \  |    /   |      \           
                |  |  |   | |  | | |   __   |  |    \   |  |\   \          
                \     /   | |  | | |  |  |  |  | |\  \  |  | \   \       
                 \___/    |_|  |_| |__|  |__|  |_| \__\ |__|  \__/        
                                                                              
                      - O R C A' S   B I G   F R I E N D -                    
                                      &                                       
                       - I N T E G R A L  F E E D E R -                       
                                                                              
 v1 FN, 2020, v2 2021                                                         
------------------------------------------------------------------------------


Reading SHARK input file C2N2_60.SHARKINP.tmp ... ok
----------------------
SHARK INTEGRAL PACKAGE
----------------------

Number of atoms                             ...      8
Number of basis functions                   ...     98
Number of shells                            ...     46
Maximum angular momentum                    ...      3
Integral batch strategy                     ... SHARK/LIBINT Hybrid
RI-J (if used) integral strategy            ... SPLIT-RIJ (Revised 2003 algorithm where possible)
Printlevel                                  ...      1
Contraction scheme used                     ... SEGMENTED contraction
Coulomb Range Separation                    ... NOT USED
Exchange Range Separation                   ... NOT USED
Finite Nucleus Model                        ... NOT USED
Auxiliary Coulomb fitting basis             ... AVAILABLE
   # of basis functions in Aux-J            ...    164
   # of shells in Aux-J                     ...     60
   Maximum angular momentum in Aux-J        ...      4
Auxiliary J/K fitting basis                 ... NOT available
Auxiliary Correlation fitting basis         ... NOT available
Auxiliary 'external' fitting basis          ... NOT available
Integral threshold                          ...     2.500000e-11
Primitive cut-off                           ...     2.500000e-12
Primitive pair pre-selection threshold      ...     2.500000e-12

Calculating pre-screening integrals         ... done (  0.0 sec) Dimension = 46
Organizing shell pair data                  ... done (  0.0 sec)
Shell pair information
Total number of shell pairs                 ...      1081
Shell pairs after pre-screening             ...      1080
Total number of primitive shell pairs       ...      2988
Primitive shell pairs kept                  ...      2670
          la=0 lb=0:    405 shell pairs
          la=1 lb=0:    336 shell pairs
          la=1 lb=1:     78 shell pairs
          la=2 lb=0:    112 shell pairs
          la=2 lb=1:     48 shell pairs
          la=2 lb=2:     10 shell pairs
          la=3 lb=0:     56 shell pairs
          la=3 lb=1:     24 shell pairs
          la=3 lb=2:      8 shell pairs
          la=3 lb=3:      3 shell pairs

Calculating one electron integrals          ... done (  0.0 sec)
Calculating RI/J V-Matrix + Cholesky decomp.... done (  0.0 sec)
Calculating Nuclear repulsion               ... done (  0.0 sec) ENN=     42.170042084218 Eh

SHARK setup successfully completed in   0.1 seconds

Maximum memory used throughout the entire GTOINT-calculation: 14.6 MB


           ************************************************************
           *        Program running with 5 parallel MPI-processes     *
           *              working on a common directory               *
           ************************************************************
-------------------------------------------------------------------------------
                                 ORCA SCF
-------------------------------------------------------------------------------

------------
SCF SETTINGS
------------
Hamiltonian:
 Density Functional     Method          .... DFT(GTOs)
 Exchange Functional    Exchange        .... PBE
   PBE kappa parameter   XKappa         ....  0.804000
   PBE mue parameter    XMuePBE         ....  0.219520
 Correlation Functional Correlation     .... PBE
   PBE beta parameter  CBetaPBE         ....  0.066725
 LDA part of GGA corr.  LDAOpt          .... PW91-LDA
 Gradients option       PostSCFGGA      .... off
 Hybrid DFT is turned on
   Fraction HF Exchange ScalHFX         ....  0.250000
   Scaling of DF-GGA-X  ScalDFX         ....  0.750000
   Scaling of DF-GGA-C  ScalDFC         ....  1.000000
   Scaling of DF-LDA-C  ScalLDAC        ....  1.000000
   Perturbative correction              ....  0.000000
   Density functional embedding theory  .... OFF
   NL short-range parameter             ....  6.900000
 RI-approximation to the Coulomb term is turned on
   Number of AuxJ basis functions       .... 164
   RIJ-COSX (HFX calculated with COS-X)).... on


General Settings:
 Integral files         IntName         .... C2N2_60
 Hartree-Fock type      HFTyp           .... RHF
 Total Charge           Charge          ....    0
 Multiplicity           Mult            ....    1
 Number of Electrons    NEL             ....   18
 Basis Dimension        Dim             ....   98
 Nuclear Repulsion      ENuc            ....     42.1700420842 Eh

Convergence Acceleration:
 DIIS                   CNVDIIS         .... on
   Start iteration      DIISMaxIt       ....    12
   Startup error        DIISStart       ....  0.200000
   # of expansion vecs  DIISMaxEq       ....     5
   Bias factor          DIISBfac        ....   1.050
   Max. coefficient     DIISMaxC        ....  10.000
 Trust-Rad. Augm. Hess. CNVTRAH         .... auto
   Auto Start mean grad. ratio tolernc. ....  1.125000
   Auto Start start iteration           ....    20
   Auto Start num. interpolation iter.  ....    10
   Max. Number of Micro iterations      ....    16
   Max. Number of Macro iterations      .... Maxiter - #DIIS iter
   Number of Davidson start vectors     ....     2
   Converg. threshold I  (grad. norm)   ....   1.000e-05
   Converg. threshold II (energy diff.) ....   1.000e-08
   Grad. Scal. Fac. for Micro threshold ....   0.100
   Minimum threshold for Micro iter.    ....   0.010
   NR start threshold (gradient norm)   ....   0.001
   Initial trust radius                 ....   0.400
   Minimum AH scaling param. (alpha)    ....   1.000
   Maximum AH scaling param. (alpha)    .... 1000.000
   Orbital update algorithm             .... Taylor
   White noise on init. David. guess    .... on
   Maximum white noise                  ....   0.010
   Quad. conv. algorithm                .... NR
 SOSCF                  CNVSOSCF        .... on
   Start iteration      SOSCFMaxIt      ....   150
   Startup grad/error   SOSCFStart      ....  0.003300
 Level Shifting         CNVShift        .... on
   Level shift para.    LevelShift      ....    0.2500
   Turn off err/grad.   ShiftErr        ....    0.0010
 Zerner damping         CNVZerner       .... off
 Static damping         CNVDamp         .... on
   Fraction old density DampFac         ....    0.7000
   Max. Damping (<1)    DampMax         ....    0.9800
   Min. Damping (>=0)   DampMin         ....    0.0000
   Turn off err/grad.   DampErr         ....    0.1000
 Fernandez-Rico         CNVRico         .... off

SCF Procedure:
 Maximum # iterations   MaxIter         ....   125
 SCF integral mode      SCFMode         .... Direct
   Integral package                     .... SHARK and LIBINT hybrid scheme
 Reset frequency        DirectResetFreq ....    20
 Integral Threshold     Thresh          ....  2.500e-11 Eh
 Primitive CutOff       TCut            ....  2.500e-12 Eh

Convergence Tolerance:
 Convergence Check Mode ConvCheckMode   .... Total+1el-Energy
 Convergence forced     ConvForced      .... 0
 Energy Change          TolE            ....  1.000e-08 Eh
 1-El. energy change                    ....  1.000e-05 Eh
 Orbital Gradient       TolG            ....  1.000e-05
 Orbital Rotation angle TolX            ....  1.000e-05
 DIIS Error             TolErr          ....  5.000e-07


Diagonalization of the overlap matrix:
Smallest eigenvalue                        ... 5.806e-04
Time for diagonalization                   ...    0.002 sec
Threshold for overlap eigenvalues          ... 1.000e-08
Number of eigenvalues below threshold      ... 0
Time for construction of square roots      ...    0.005 sec
Total time needed                          ...    0.007 sec

Time for model grid setup =    0.020 sec

------------------------------
INITIAL GUESS: MODEL POTENTIAL
------------------------------
Loading Hartree-Fock densities                     ... done
Calculating cut-offs                               ... done
Initializing the effective Hamiltonian             ... done
Setting up the integral package (SHARK)            ... done
Starting the Coulomb interaction                   ... done (   0.0 sec)
Reading the grid                                   ... done
Mapping shells                                     ... done
Starting the XC term evaluation                    ... done (   0.0 sec)
  promolecular density results
     # of electrons  =     17.998362710
     EX              =    -11.972782493
     EC              =     -0.554613167
     EX+EC           =    -12.527395660
Transforming the Hamiltonian                       ... done (   0.0 sec)
Diagonalizing the Hamiltonian                      ... done (   0.0 sec)
Back transforming the eigenvectors                 ... done (   0.0 sec)
Now organizing SCF variables                       ... done
                      ------------------
                      INITIAL GUESS DONE (   0.1 sec)
                      ------------------
-------------------
DFT GRID GENERATION
-------------------

General Integration Accuracy     IntAcc      ... 4.388
Radial Grid Type                 RadialGrid  ... OptM3 with GC (2021)
Angular Grid (max. ang.)         AngularGrid ... 4 (Lebedev-302)
Angular grid pruning method      GridPruning ... 4 (adaptive)
Weight generation scheme         WeightScheme... Becke
Basis function cutoff            BFCut       ... 1.0000e-11
Integration weight cutoff        WCut        ... 1.0000e-14
Angular grids for H and He will be reduced by one unit
Partially contracted basis set               ... off
Rotationally invariant grid construction     ... off

Total number of grid points                  ...    31679
Total number of batches                      ...      498
Average number of points per batch           ...       63
Average number of grid points per atom       ...     3960
Time for grid setup =    0.101 sec

--------------------
COSX GRID GENERATION
--------------------

GRIDX 1
-------
General Integration Accuracy     IntAcc      ... 3.816
Radial Grid Type                 RadialGrid  ... OptM3 with GC (2021)
Angular Grid (max. ang.)         AngularGrid ... 1 (Lebedev-50)
Angular grid pruning method      GridPruning ... 4 (adaptive)
Weight generation scheme         WeightScheme... Becke
Basis function cutoff            BFCut       ... 1.0000e-11
Integration weight cutoff        WCut        ... 1.0000e-14
Angular grids for H and He will be reduced by one unit
Partially contracted basis set               ... on
Rotationally invariant grid construction     ... off

Total number of grid points                  ...     4114
Total number of batches                      ...       68
Average number of points per batch           ...       60
Average number of grid points per atom       ...      514
UseSFitting                                  ... on

GRIDX 2
-------
General Integration Accuracy     IntAcc      ... 4.020
Radial Grid Type                 RadialGrid  ... OptM3 with GC (2021)
Angular Grid (max. ang.)         AngularGrid ... 2 (Lebedev-110)
Angular grid pruning method      GridPruning ... 4 (adaptive)
Weight generation scheme         WeightScheme... Becke
Basis function cutoff            BFCut       ... 1.0000e-11
Integration weight cutoff        WCut        ... 1.0000e-14
Angular grids for H and He will be reduced by one unit
Partially contracted basis set               ... on
Rotationally invariant grid construction     ... off

Total number of grid points                  ...     8397
Total number of batches                      ...      136
Average number of points per batch           ...       61
Average number of grid points per atom       ...     1050
UseSFitting                                  ... on

GRIDX 3
-------
General Integration Accuracy     IntAcc      ... 4.338
Radial Grid Type                 RadialGrid  ... OptM3 with GC (2021)
Angular Grid (max. ang.)         AngularGrid ... 3 (Lebedev-194)
Angular grid pruning method      GridPruning ... 4 (adaptive)
Weight generation scheme         WeightScheme... Becke
Basis function cutoff            BFCut       ... 1.0000e-11
Integration weight cutoff        WCut        ... 1.0000e-14
Angular grids for H and He will be reduced by one unit
Partially contracted basis set               ... on
Rotationally invariant grid construction     ... off

Total number of grid points                  ...    18436
Total number of batches                      ...      292
Average number of points per batch           ...       63
Average number of grid points per atom       ...     2305
UseSFitting                                  ... on

Time for X-Grid setup             =    0.113 sec

--------------
SCF ITERATIONS
--------------
ITER       Energy         Delta-E        Max-DP      RMS-DP      [F,P]     Damp
               ***  Starting incremental Fock matrix formation  ***
  0    -79.6416480533   0.000000000000 0.03299668  0.00144741  0.1888062 0.7000
  1    -79.6916514620  -0.050003408704 0.02161883  0.00107245  0.1005477 0.7000
                               ***Turning on DIIS***
  2    -79.7125592374  -0.020907775440 0.03398151  0.00186288  0.0397715 0.0000
  3    -79.7408334987  -0.028274261249 0.01387538  0.00070942  0.0535198 0.0000
  4    -79.7495637209  -0.008730222286 0.00267546  0.00020626  0.0113514 0.0000
                      *** Initiating the SOSCF procedure ***
                           *** Shutting down DIIS ***
                      *** Re-Reading the Fockian *** 
                      *** Removing any level shift *** 
ITER      Energy       Delta-E        Grad      Rot      Max-DP    RMS-DP
  5    -79.74999969  -0.0004359657  0.000895  0.000895  0.001062  0.000076
               *** Restarting incremental Fock matrix formation ***
  6    -79.75003047  -0.0000307883  0.000333  0.000644  0.000891  0.000054
  7    -79.75003107  -0.0000005905  0.000246  0.000188  0.000227  0.000011
  8    -79.75003228  -0.0000012106  0.000034  0.000037  0.000037  0.000002
  9    -79.75003228  -0.0000000084  0.000010  0.000011  0.000010  0.000001
                 **** Energy Check signals convergence ****
              ***Rediagonalizing the Fockian in SOSCF/NRSCF***

               *****************************************************
               *                     SUCCESS                       *
               *           SCF CONVERGED AFTER  10 CYCLES          *
               *****************************************************

Old exchange energy                            =     -3.121706838 Eh
New exchange energy                            =     -3.121701948 Eh
Exchange energy change after final integration =      0.000004890 Eh
Total energy after final integration           =    -79.750027396 Eh
Final COS-X integration done in                =     0.308 sec

----------------
TOTAL SCF ENERGY
----------------

Total Energy       :          -79.75002740 Eh           -2170.10857 eV

Components:
Nuclear Repulsion  :           42.17004208 Eh            1147.50518 eV
Electronic Energy  :         -121.92006948 Eh           -3317.61375 eV
One Electron Energy:         -189.19885201 Eh           -5148.36250 eV
Two Electron Energy:           67.27878253 Eh            1830.74875 eV
Max COSX asymmetry :            0.00000066 Eh               0.00002 eV

Virial components:
Potential Energy   :         -159.01268710 Eh           -4326.95519 eV
Kinetic Energy     :           79.26265970 Eh            2156.84662 eV
Virial Ratio       :            2.00614877


DFT components:
N(Alpha)           :        9.000004655070 electrons
N(Beta)            :        9.000004655070 electrons
N(Total)           :       18.000009310140 electrons
E(X)               :       -9.302966562516 Eh       
E(C)               :       -0.561755880005 Eh       
E(XC)              :       -9.864722442521 Eh       
DFET-embed. en.    :        0.000000000000 Eh       

---------------
SCF CONVERGENCE
---------------

  Last Energy change         ...   -1.6323e-09  Tolerance :   1.0000e-08
  Last MAX-Density change    ...    3.8858e-16  Tolerance :   1.0000e-07
  Last RMS-Density change    ...    1.5772e-17  Tolerance :   5.0000e-09
  Last Orbital Gradient      ...    8.1208e-07  Tolerance :   1.0000e-05
  Last Orbital Rotation      ...    6.3286e-07  Tolerance :   1.0000e-05

             **** THE GBW FILE WAS UPDATED (C2N2_60.gbw) ****
             **** DENSITY C2N2_60.scfp WAS UPDATED ****
             **** ENERGY FILE WAS UPDATED (C2N2_60.en.tmp) ****
             **** THE GBW FILE WAS UPDATED (C2N2_60.gbw) ****
             **** DENSITY C2N2_60.scfp WAS UPDATED ****
----------------
ORBITAL ENERGIES
----------------

  NO   OCC          E(Eh)            E(eV) 
   0   2.0000     -10.207466      -277.7593 
   1   2.0000     -10.207239      -277.7531 
   2   2.0000      -0.773306       -21.0427 
   3   2.0000      -0.631413       -17.1816 
   4   2.0000      -0.448088       -12.1931 
   5   2.0000      -0.448080       -12.1929 
   6   2.0000      -0.373929       -10.1751 
   7   2.0000      -0.354025        -9.6335 
   8   2.0000      -0.354008        -9.6330 
   9   0.0000       0.052020         1.4155 
  10   0.0000       0.092548         2.5184 
  11   0.0000       0.122251         3.3266 
  12   0.0000       0.122262         3.3269 
  13   0.0000       0.134175         3.6511 
  14   0.0000       0.134183         3.6513 
  15   0.0000       0.197767         5.3815 
  16   0.0000       0.210279         5.7220 
  17   0.0000       0.247734         6.7412 
  18   0.0000       0.247737         6.7413 
  19   0.0000       0.256266         6.9734 
  20   0.0000       0.256272         6.9735 
  21   0.0000       0.410000        11.1567 
  22   0.0000       0.426481        11.6051 
  23   0.0000       0.435799        11.8587 
  24   0.0000       0.457031        12.4365 
  25   0.0000       0.457061        12.4373 
  26   0.0000       0.510553        13.8929 
  27   0.0000       0.510576        13.8935 
  28   0.0000       0.565283        15.3821 
  29   0.0000       0.585369        15.9287 
  30   0.0000       0.645559        17.5666 
  31   0.0000       0.645583        17.5672 
  32   0.0000       0.843758        22.9598 
  33   0.0000       0.843787        22.9606 
  34   0.0000       0.938606        25.5408 
  35   0.0000       1.036884        28.2150 
  36   0.0000       1.036895        28.2154 
  37   0.0000       1.051091        28.6016 
  38   0.0000       1.051107        28.6021 
  39   0.0000       1.109399        30.1883 
  40   0.0000       1.495678        40.6995 
  41   0.0000       1.497457        40.7479 
  42   0.0000       1.497471        40.7483 
  43   0.0000       1.533452        41.7273 
  44   0.0000       1.543182        41.9921 
  45   0.0000       1.552427        42.2437 
  46   0.0000       1.593450        43.3600 
  47   0.0000       1.593553        43.3628 
  48   0.0000       1.745857        47.5072 
  49   0.0000       1.750013        47.6203 
  50   0.0000       1.803181        49.0670 
  51   0.0000       1.803216        49.0680 
  52   0.0000       1.937093        52.7110 
  53   0.0000       1.937119        52.7117 
  54   0.0000       1.988507        54.1100 
  55   0.0000       2.144929        58.3665 
  56   0.0000       2.284641        62.1682 
  57   0.0000       2.333942        63.5098 
  58   0.0000       2.333954        63.5101 
  59   0.0000       2.355594        64.0990 
  60   0.0000       2.355640        64.1002 
  61   0.0000       2.402892        65.3860 
  62   0.0000       2.402938        65.3873 
  63   0.0000       2.546628        69.2973 
  64   0.0000       2.546669        69.2984 
  65   0.0000       2.589232        70.4566 
  66   0.0000       2.589256        70.4572 
  67   0.0000       2.648920        72.0808 
  68   0.0000       2.648964        72.0820 
  69   0.0000       2.701097        73.5006 
  70   0.0000       2.856667        77.7339 
  71   0.0000       2.968760        80.7841 
  72   0.0000       3.021110        82.2086 
  73   0.0000       3.021139        82.2094 
  74   0.0000       3.115790        84.7850 
  75   0.0000       3.115822        84.7858 
  76   0.0000       3.185782        86.6895 
  77   0.0000       3.212142        87.4068 
  78   0.0000       3.275051        89.1187 
  79   0.0000       3.347598        91.0928 
  80   0.0000       3.347666        91.0946 
  81   0.0000       3.496836        95.1537 
  82   0.0000       3.503491        95.3348 
  83   0.0000       3.503547        95.3364 
  84   0.0000       3.749603       102.0319 
  85   0.0000       3.749665       102.0336 
  86   0.0000       3.907118       106.3181 
  87   0.0000       3.907164       106.3193 
  88   0.0000       3.918392       106.6249 
  89   0.0000       4.250808       115.6704 
  90   0.0000       4.321038       117.5814 
  91   0.0000       4.321070       117.5823 
  92   0.0000       4.434792       120.6768 
  93   0.0000       4.434840       120.6781 
  94   0.0000       4.591941       124.9531 
  95   0.0000       4.752671       129.3267 
  96   0.0000      22.341950       607.9554 
  97   0.0000      22.375925       608.8799 

                    ********************************
                    * MULLIKEN POPULATION ANALYSIS *
                    ********************************

-----------------------
MULLIKEN ATOMIC CHARGES
-----------------------
   0 C :   -0.343672
   1 C :   -0.343669
   2 H :    0.114550
   3 H :    0.114554
   4 H :    0.114566
   5 H :    0.114565
   6 H :    0.114556
   7 H :    0.114551
Sum of atomic charges:   -0.0000000

--------------------------------
MULLIKEN REDUCED ORBITAL CHARGES
--------------------------------
  0 C s       :     3.229478  s :     3.229478
      pz      :     1.050339  p :     3.050654
      px      :     0.949323
      py      :     1.050991
      dz2     :     0.005036  d :     0.060095
      dxz     :     0.020822
      dyz     :     0.006351
      dx2y2   :     0.009124
      dxy     :     0.018762
      f0      :     0.000464  f :     0.003445
      f+1     :     0.000454
      f-1     :     0.000302
      f+2     :     0.000814
      f-2     :    -0.000035
      f+3     :     0.000601
      f-3     :     0.000845
  1 C s       :     3.229475  s :     3.229475
      pz      :     1.050348  p :     3.050658
      px      :     0.949319
      py      :     1.050991
      dz2     :     0.005028  d :     0.060091
      dxz     :     0.020825
      dyz     :     0.006357
      dx2y2   :     0.009126
      dxy     :     0.018756
      f0      :     0.000468  f :     0.003445
      f+1     :     0.000455
      f-1     :     0.000293
      f+2     :     0.000819
      f-2     :    -0.000035
      f+3     :     0.000601
      f-3     :     0.000844
  2 H s       :     0.864417  s :     0.864417
      pz      :     0.005070  p :     0.021033
      px      :     0.005423
      py      :     0.010540
  3 H s       :     0.864411  s :     0.864411
      pz      :     0.010254  p :     0.021036
      px      :     0.006054
      py      :     0.004728
  4 H s       :     0.864395  s :     0.864395
      pz      :     0.007807  p :     0.021039
      px      :     0.005332
      py      :     0.007900
  5 H s       :     0.864397  s :     0.864397
      pz      :     0.007769  p :     0.021039
      px      :     0.005334
      py      :     0.007936
  6 H s       :     0.864409  s :     0.864409
      pz      :     0.005093  p :     0.021035
      px      :     0.005422
      py      :     0.010521
  7 H s       :     0.864413  s :     0.864413
      pz      :     0.010269  p :     0.021037
      px      :     0.006055
      py      :     0.004713


                     *******************************
                     * LOEWDIN POPULATION ANALYSIS *
                     *******************************

----------------------
LOEWDIN ATOMIC CHARGES
----------------------
   0 C :   -0.348273
   1 C :   -0.348266
   2 H :    0.116088
   3 H :    0.116089
   4 H :    0.116097
   5 H :    0.116104
   6 H :    0.116076
   7 H :    0.116086

-------------------------------
LOEWDIN REDUCED ORBITAL CHARGES
-------------------------------
  0 C s       :     2.842317  s :     2.842317
      pz      :     1.077764  p :     3.217805
      px      :     1.062179
      py      :     1.077863
      dz2     :     0.030794  d :     0.263713
      dxz     :     0.077348
      dyz     :     0.032539
      dx2y2   :     0.054135
      dxy     :     0.068897
      f0      :     0.003021  f :     0.024438
      f+1     :     0.003813
      f-1     :     0.001564
      f+2     :     0.004287
      f-2     :     0.002133
      f+3     :     0.003723
      f-3     :     0.005897
  1 C s       :     2.842302  s :     2.842302
      pz      :     1.077769  p :     3.217814
      px      :     1.062180
      py      :     1.077865
      dz2     :     0.030728  d :     0.263711
      dxz     :     0.077383
      dyz     :     0.032589
      dx2y2   :     0.054154
      dxy     :     0.068857
      f0      :     0.003045  f :     0.024439
      f+1     :     0.003821
      f-1     :     0.001523
      f+2     :     0.004304
      f-2     :     0.002127
      f+3     :     0.003722
      f-3     :     0.005898
  2 H s       :     0.822102  s :     0.822102
      pz      :     0.015390  p :     0.061810
      px      :     0.015040
      py      :     0.031380
  3 H s       :     0.822100  s :     0.822100
      pz      :     0.030751  p :     0.061811
      px      :     0.016597
      py      :     0.014463
  4 H s       :     0.822098  s :     0.822098
      pz      :     0.023271  p :     0.061804
      px      :     0.014822
      py      :     0.023711
  5 H s       :     0.822095  s :     0.822095
      pz      :     0.023165  p :     0.061801
      px      :     0.014825
      py      :     0.023811
  6 H s       :     0.822102  s :     0.822102
      pz      :     0.015456  p :     0.061822
      px      :     0.015039
      py      :     0.031328
  7 H s       :     0.822100  s :     0.822100
      pz      :     0.030795  p :     0.061814
      px      :     0.016598
      py      :     0.014421


                      *****************************
                      * MAYER POPULATION ANALYSIS *
                      *****************************

  NA   - Mulliken gross atomic population
  ZA   - Total nuclear charge
  QA   - Mulliken gross atomic charge
  VA   - Mayer's total valence
  BVA  - Mayer's bonded valence
  FA   - Mayer's free valence

  ATOM       NA         ZA         QA         VA         BVA        FA
  0 C      6.3437     6.0000    -0.3437     3.9197     3.9197     0.0000
  1 C      6.3437     6.0000    -0.3437     3.9197     3.9197     0.0000
  2 H      0.8855     1.0000     0.1145     0.9683     0.9683     0.0000
  3 H      0.8854     1.0000     0.1146     0.9682     0.9682     0.0000
  4 H      0.8854     1.0000     0.1146     0.9682     0.9682    -0.0000
  5 H      0.8854     1.0000     0.1146     0.9682     0.9682     0.0000
  6 H      0.8854     1.0000     0.1146     0.9683     0.9683    -0.0000
  7 H      0.8854     1.0000     0.1146     0.9682     0.9682    -0.0000

  Mayer bond orders larger than 0.100000
B(  0-C ,  1-C ) :   1.0077 B(  0-C ,  2-H ) :   0.9730 B(  0-C ,  3-H ) :   0.9731 
B(  0-C ,  4-H ) :   0.9731 B(  1-C ,  5-H ) :   0.9731 B(  1-C ,  6-H ) :   0.9730 
B(  1-C ,  7-H ) :   0.9731 

-------
TIMINGS
-------

Total SCF time: 0 days 0 hours 0 min 3 sec 

Total time                  ....       3.272 sec
Sum of individual times     ....       3.096 sec  ( 94.6%)

Fock matrix formation       ....       2.731 sec  ( 83.5%)
  Split-RI-J                ....       0.251 sec  (  9.2% of F)
  Chain of spheres X        ....       1.563 sec  ( 57.2% of F)
  XC integration            ....       0.664 sec  ( 24.3% of F)
    Basis function eval.    ....       0.121 sec  ( 18.2% of XC)
    Density eval.           ....       0.094 sec  ( 14.2% of XC)
    XC-Functional eval.     ....       0.036 sec  (  5.4% of XC)
    XC-Potential eval.      ....       0.119 sec  ( 17.9% of XC)
Diagonalization             ....       0.035 sec  (  1.1%)
Density matrix formation    ....       0.001 sec  (  0.0%)
Population analysis         ....       0.018 sec  (  0.6%)
Initial guess               ....       0.030 sec  (  0.9%)
Orbital Transformation      ....       0.000 sec  (  0.0%)
Orbital Orthonormalization  ....       0.000 sec  (  0.0%)
DIIS solution               ....       0.022 sec  (  0.7%)
SOSCF solution              ....       0.025 sec  (  0.8%)
Grid generation             ....       0.234 sec  (  7.2%)

Maximum memory used throughout the entire SCF-calculation: 60.4 MB

-------------------------   --------------------
FINAL SINGLE POINT ENERGY       -79.750027395960
-------------------------   --------------------



           ************************************************************
           *        Program running with 5 parallel MPI-processes     *
           *              working on a common directory               *
           ************************************************************
------------------------------------------------------------------------------
                         ORCA SCF GRADIENT CALCULATION
------------------------------------------------------------------------------

 ... reading COSX grid (gridx3)
Gradient of the Kohn-Sham DFT energy:
Kohn-Sham wavefunction type      ... RKS
Hartree-Fock exchange scaling    ...    0.250
Number of operators              ...    1
Number of atoms                  ...    8
Basis set dimensions             ...   98
Integral neglect threshold       ... 2.5e-11
Integral primitive cutoff        ... 2.5e-12
SHARK Integral package           ... ON

Nuc. rep. gradient       (SHARK) ... done (  0.0 sec)
HCore & Overlap gradient (SHARK) ... done (  0.0 sec)
RI-J gradient            (SHARK) ... done (  0.1 sec)
COSX-gradient                    ... done (  0.4 sec)
Exchange-correlation gradient    ... done

------------------
CARTESIAN GRADIENT
------------------

   1   C   :   -0.011158542   -0.000131233    0.000826532
   2   C   :    0.011180353    0.000185442   -0.000821696
   3   H   :    0.001668681   -0.000905481    0.000105579
   4   H   :    0.001582699    0.000218253   -0.001047392
   5   H   :    0.001685149    0.000704301    0.000543316
   6   H   :   -0.001678395   -0.000743130   -0.000515552
   7   H   :   -0.001691073    0.000853513   -0.000131264
   8   H   :   -0.001587689   -0.000180501    0.001043131

Difference to translation invariance:
           :    0.0000011834    0.0000011640    0.0000026543

Difference to rotation invariance:
           :   -0.0000120962   -0.0002688033    0.0002362474

Norm of the cartesian gradient     ...    0.0165136719
RMS gradient                       ...    0.0033708392
MAX gradient                       ...    0.0111803533

-------
TIMINGS
-------

Total SCF gradient time            ...        0.816 sec

One electron gradient       ....       0.008 sec  (  1.0%)
RI-J Coulomb gradient       ....       0.074 sec  (  9.1%)
COSX gradient               ....       0.381 sec  ( 46.7%)
XC gradient                 ....       0.229 sec  ( 28.1%)

Maximum memory used throughout the entire SCFGRAD-calculation: 35.2 MB

                            ***************************************
                            *     ORCA property calculations      *
                            ***************************************

                                    ---------------------
                                    Active property flags
                                    ---------------------
   (+) Dipole Moment
   (+) Chemical Shifts
   (+) Nuclear properties (Hyperfine,Quadrupole)


------------------------------------------------------------------------------
                       ORCA ELECTRIC PROPERTIES CALCULATION
------------------------------------------------------------------------------

Dipole Moment Calculation                       ... on
Quadrupole Moment Calculation                   ... off
Polarizability Calculation                      ... off
GBWName                                         ... C2N2_60.gbw
Electron density                                ... C2N2_60.scfp
The origin for moment calculation is the CENTER OF MASS  = ( 3.150371,  0.414129 -0.167435)

-------------
DIPOLE MOMENT
-------------
                                X             Y             Z
Electronic contribution:      0.00007       0.00012       0.00000
Nuclear contribution   :     -0.00006      -0.00012       0.00000
                        -----------------------------------------
Total Dipole Moment    :      0.00001       0.00001       0.00000
                        -----------------------------------------
Magnitude (a.u.)       :      0.00002
Magnitude (Debye)      :      0.00004



--------------------
Rotational spectrum 
--------------------
 
Rotational constants in cm-1:     2.659367     0.665332     0.665326 
Rotational constants in MHz : 79725.810232 19946.149984 19945.977479 

 Dipole components along the rotational axes: 
x,y,z [a.u.] :    -0.000013     0.000010     0.000000 
x,y,z [Debye]:    -0.000034     0.000026     0.000001 

 


           ************************************************************
           *        Program running with 5 parallel MPI-processes     *
           *              working on a common directory               *
           ************************************************************
------------------------------------------------------------------------------
                                ORCA EPR/NMR CALCULATION
------------------------------------------------------------------------------

GBWName                      ... C2N2_60.gbw
Electron density             ... C2N2_60.scfp
Spin density                 ... C2N2_60.scfr
Treatment of gauge           ... GIAO (approximations 1/2el = 0,0)
Details of the CP(SCF) procedure:
       Solver   = POPLE   
       MaxIter  =    64   
       Tolerance=    1.000e-04
       COSX Grid=     1   
       Op-0     =   0-  8 =>   9- 97
Multiplicity                 ... 1
g-tensor                     ... 0
NMR chemical shifts          ... 1
NMR spin-spin couplings      ... 0
NMR spectrum                 ... 0
Number of nuclei for epr/nmr ... 8
   Nucleus:   0C 
       Hyperfine : Isotope=   13 I=   0.500 P= 134.190
       Quadrupole: Isotope=   13 I=   0.500 Q=   0.000
       Spin-Orbit: Zeff=   3.600
       Nuclear Spin-Spin: Gn=   0.000
       EPRNMR Input: 
       rho(0)=N f(grad)=N a(iso)=N a(dip)=N a(orb)=N sigma(nmr)=Y spin-spin(nmr)=all-N,DSO-N,PSO-N,FC-N,SD-N
   Nucleus:   1C 
       Hyperfine : Isotope=   13 I=   0.500 P= 134.190
       Quadrupole: Isotope=   13 I=   0.500 Q=   0.000
       Spin-Orbit: Zeff=   3.600
       Nuclear Spin-Spin: Gn=   0.000
       EPRNMR Input: 
       rho(0)=N f(grad)=N a(iso)=N a(dip)=N a(orb)=N sigma(nmr)=Y spin-spin(nmr)=all-N,DSO-N,PSO-N,FC-N,SD-N
   Nucleus:   2H 
       Hyperfine : Isotope=    1 I=   0.500 P= 533.551
       Quadrupole: Isotope=    2 I=   1.000 Q=   0.003
       Spin-Orbit: Zeff=   1.000
       Nuclear Spin-Spin: Gn=   0.000
       EPRNMR Input: 
       rho(0)=N f(grad)=N a(iso)=N a(dip)=N a(orb)=N sigma(nmr)=Y spin-spin(nmr)=all-N,DSO-N,PSO-N,FC-N,SD-N
   Nucleus:   3H 
       Hyperfine : Isotope=    1 I=   0.500 P= 533.551
       Quadrupole: Isotope=    2 I=   1.000 Q=   0.003
       Spin-Orbit: Zeff=   1.000
       Nuclear Spin-Spin: Gn=   0.000
       EPRNMR Input: 
       rho(0)=N f(grad)=N a(iso)=N a(dip)=N a(orb)=N sigma(nmr)=Y spin-spin(nmr)=all-N,DSO-N,PSO-N,FC-N,SD-N
   Nucleus:   4H 
       Hyperfine : Isotope=    1 I=   0.500 P= 533.551
       Quadrupole: Isotope=    2 I=   1.000 Q=   0.003
       Spin-Orbit: Zeff=   1.000
       Nuclear Spin-Spin: Gn=   0.000
       EPRNMR Input: 
       rho(0)=N f(grad)=N a(iso)=N a(dip)=N a(orb)=N sigma(nmr)=Y spin-spin(nmr)=all-N,DSO-N,PSO-N,FC-N,SD-N
   Nucleus:   5H 
       Hyperfine : Isotope=    1 I=   0.500 P= 533.551
       Quadrupole: Isotope=    2 I=   1.000 Q=   0.003
       Spin-Orbit: Zeff=   1.000
       Nuclear Spin-Spin: Gn=   0.000
       EPRNMR Input: 
       rho(0)=N f(grad)=N a(iso)=N a(dip)=N a(orb)=N sigma(nmr)=Y spin-spin(nmr)=all-N,DSO-N,PSO-N,FC-N,SD-N
   Nucleus:   6H 
       Hyperfine : Isotope=    1 I=   0.500 P= 533.551
       Quadrupole: Isotope=    2 I=   1.000 Q=   0.003
       Spin-Orbit: Zeff=   1.000
       Nuclear Spin-Spin: Gn=   0.000
       EPRNMR Input: 
       rho(0)=N f(grad)=N a(iso)=N a(dip)=N a(orb)=N sigma(nmr)=Y spin-spin(nmr)=all-N,DSO-N,PSO-N,FC-N,SD-N
   Nucleus:   7H 
       Hyperfine : Isotope=    1 I=   0.500 P= 533.551
       Quadrupole: Isotope=    2 I=   1.000 Q=   0.003
       Spin-Orbit: Zeff=   1.000
       Nuclear Spin-Spin: Gn=   0.000
       EPRNMR Input: 
       rho(0)=N f(grad)=N a(iso)=N a(dip)=N a(orb)=N sigma(nmr)=Y spin-spin(nmr)=all-N,DSO-N,PSO-N,FC-N,SD-N
Forming RHS of the CP-SCF equations         ... 
Calculating right hand sides for GIAO treatment        ... 
  Entering RightHandSide GIAO. ScalHFX=    0.2500 NeedHFX=1
     -> 1-electron GIAO integrals will be done analytically
     -> RIJCOSX used in SCF. Same chosen for GIAO calculation.
     Making grid for GIAO integrations   ...

GRID GIAO
---------

General Integration Accuracy     IntAcc      ... 4.388
Radial Grid Type                 RadialGrid  ... OptM3 with GC (2021)
Angular Grid (max. ang.)         AngularGrid ... 4 (Lebedev-302)
Angular grid pruning method      GridPruning ... 4 (adaptive)
Weight generation scheme         WeightScheme... Becke
Basis function cutoff            BFCut       ... 1.0000e-11
Integration weight cutoff        WCut        ... 1.0000e-14
Angular grids for H and He will be reduced by one unit
Partially contracted basis set               ... off
Rotationally invariant grid construction     ... off

Total number of grid points                  ...    31679
Total number of batches                      ...      498
Average number of points per batch           ...       63
Average number of grid points per atom       ...     3960

  One-electron GIAO integrals (SHARK)     ... done
  Calculating G(B)[P]                     ... (RI-J: SHARK-ok) (COSX-ok) (add-J+K:ok) => dG/dB done
  DFT XC-terms                            ... done
  Extracting occupied and virtual blocks  ... 
  Operator  0  NO=   9 NV=  89 
  Transforming and RHS contribution       ... done
  Adding eps_i * S(B)_ai terms            ... done
  Projecting overlap derivatives          ... done
  Building G[dS/dB_ij] (COSX)             ... done
  Transforming to MO basis                ... done
  Summing G[dS/dB_ij] into RHS contribs.  ... done

  GIAO profiling information: 
    Total GIAO time               ...       0.9 sec
       GIAO 1-electron integrals  ...       0.0 sec (  0.6%)
       GIAO G(dS/dB) terms        ...       0.1 sec ( 11.0%)
       GIAO RI-J                  ...       0.1 sec (  7.2%)
       GIAO COSX                  ...       0.2 sec ( 24.0%)
       GIAO XC-terms              ...       0.4 sec ( 43.5%)
       Right hand side assembly   ...       0.0 sec (  0.1%)

  GIAO right hand side done


------------------------------------------------------------------------------
                           ORCA CP-SCF CALCULATION
------------------------------------------------------------------------------

Input orbitals are from        ... C2N2_60.gbw
Input Perturbation             ... C2N2_60.pin.tmp
Wavefunction output            ... C2N2_60.pout.tmp
Perturbation mode              ... Imaginary perturbation
Solver                         ... POPLE
Max. number of iterations      ... 64
Convergence tolerance          ... 1.000e-04
Integral handling              ... Direct
DFT GridXC                     ... 1
COSX GridX                     ... 1
COSX IntAccX                   ... 3.067
COSX Algorithm                 ... Auto
Number of perturbations        ... 3
Number of operators            ... 1
Orbital ranges used for CP-SCF:
 Operator 0:  Orbitals   0...  8  to   9... 97
Variables per perturbation     ... 801
DFT calculation                         ... on
XC functional terms                     ... off
Hybrid DFT                              ... on
   Exchange mixing (SCF)                ...  0.250
   Exchange mixing (CP-SCF)             ...  0.250
   GGA exch. scaling(SCF)               ...  0.750
   GGA exch. scaling (CP-SCF)           ...  0.750
   GGA corr. scaling (SCF)              ...  1.000
   GGA corr. scaling (CP-SCF)           ...  1.000

CP-SCF GRID
-----------

General Integration Accuracy     IntAcc      ... 3.467
Radial Grid Type                 RadialGrid  ... OptM3 with GC (2021)
Angular Grid (max. ang.)         AngularGrid ... 1 (Lebedev-50)
Angular grid pruning method      GridPruning ... 4 (adaptive)
Weight generation scheme         WeightScheme... Becke
Basis function cutoff            BFCut       ... 1.0000e-11
Integration weight cutoff        WCut        ... 1.0000e-14
Angular grids for H and He will be reduced by one unit
Partially contracted basis set               ... off
Rotationally invariant grid construction     ... off

Total number of grid points                  ...     4374
Total number of batches                      ...       72
Average number of points per batch           ...       60
Average number of grid points per atom       ...      547

CP-SCF GRIDX
------------

General Integration Accuracy     IntAcc      ... 3.067
Radial Grid Type                 RadialGrid  ... OptM3 with GC (2021)
Angular Grid (max. ang.)         AngularGrid ... 1 (Lebedev-50)
Angular grid pruning method      GridPruning ... 4 (adaptive)
Weight generation scheme         WeightScheme... Becke
Basis function cutoff            BFCut       ... 1.0000e-11
Integration weight cutoff        WCut        ... 1.0000e-14
Angular grids for H and He will be reduced by one unit
Partially contracted basis set               ... on
Rotationally invariant grid construction     ... off

Total number of grid points                  ...     2064
Total number of batches                      ...       36
Average number of points per batch           ...       57
Average number of grid points per atom       ...      258

Memory available               ... 1014.3 MB
Memory needed per perturbation ...   0.4 MB
Perturbations treated per batch... 3
Number of batches              ... 1
     CP-SCF ITERATION   0:   2.0337e-01 (   0.1 sec   0/  3 done)
     CP-SCF ITERATION   1:   2.1469e-03 (   0.1 sec   0/  3 done)
     CP-SCF ITERATION   2:   8.2304e-05 (   0.1 sec   3/  3 done)
                    *** THE CP-SCF HAS CONVERGED ***

Forming final perturbed densities           ... done
Transforming perturbed density to AO basis  ... done

Magnetic field perturbation calculated in  1.172 sec

---------------
CHEMICAL SHIFTS
---------------

Note: using conversion factor for au to ppm alpha^2/2 =   26.625677252 
GIAO: Analytic para- and diamagnetic shielding integrals (SHARK)       ...done
 --------------
 Nucleus   0C :
 --------------

Diamagnetic contribution to the shielding tensor (ppm) : 
           253.723         -0.402        -0.931
             0.065        243.148        -0.004
            -0.830          0.031       243.223

Paramagnetic contribution to the shielding tensor (ppm): 
           -66.364          0.499        -0.133
             0.024        -69.277        -0.048
            -0.239         -0.017       -69.275

Total shielding tensor (ppm): 
           187.359          0.097        -1.064
             0.089        173.871        -0.052
            -1.069          0.014       173.948


 Diagonalized sT*s matrix:
 
 sDSO           243.151          243.150          253.794  iso=     246.698
 sPSO           -69.296          -69.271          -66.350  iso=     -68.305
        ---------------  ---------------  ---------------
 Total          173.855          173.880          187.444  iso=     178.393

 --------------
 Nucleus   1C :
 --------------

Diamagnetic contribution to the shielding tensor (ppm) : 
           253.684          0.628        -1.347
             0.114        235.287        -0.010
            -1.450         -0.038       235.393

Paramagnetic contribution to the shielding tensor (ppm): 
           -66.321         -0.534         0.284
            -0.008        -61.417         0.012
             0.394         -0.026       -61.441

Total shielding tensor (ppm): 
           187.363          0.093        -1.063
             0.107        173.870         0.002
            -1.056         -0.064       173.951


 Diagonalized sT*s matrix:
 
 sDSO           235.289          235.280          253.794  iso=     241.454
 sPSO           -61.444          -61.387          -66.348  iso=     -63.060
        ---------------  ---------------  ---------------
 Total          173.845          173.892          187.447  iso=     178.395

 --------------
 Nucleus   2H :
 --------------

Diamagnetic contribution to the shielding tensor (ppm) : 
            29.383          4.788        -1.831
             2.817         37.312        -3.720
            -1.126         -3.882        26.991

Paramagnetic contribution to the shielding tensor (ppm): 
             2.168         -0.670         0.223
             0.212         -4.019         1.546
            -0.151          1.624         0.639

Total shielding tensor (ppm): 
            31.552          4.118        -1.608
             3.029         33.293        -2.174
            -1.277         -2.258        27.630


 Diagonalized sT*s matrix:
 
 sDSO            25.723           28.648           39.315  iso=      31.229
 sPSO             1.128            0.123           -2.463  iso=      -0.404
        ---------------  ---------------  ---------------
 Total           26.851           28.771           36.852  iso=      30.825

 --------------
 Nucleus   3H :
 --------------

Diamagnetic contribution to the shielding tensor (ppm) : 
            30.184         -1.693         6.104
            -0.953         26.376        -2.678
             3.818         -2.611        36.923

Paramagnetic contribution to the shielding tensor (ppm): 
             2.249          0.589        -1.644
             0.110          0.827         1.218
            -0.470          1.166        -4.083

Total shielding tensor (ppm): 
            32.433         -1.104         4.459
            -0.843         27.203        -1.459
             3.348         -1.445        32.840


 Diagonalized sT*s matrix:
 
 sDSO            25.748           28.358           39.377  iso=      31.161
 sPSO             1.103            0.415           -2.524  iso=      -0.335
        ---------------  ---------------  ---------------
 Total           26.851           28.772           36.853  iso=      30.825

 --------------
 Nucleus   4H :
 --------------

Diamagnetic contribution to the shielding tensor (ppm) : 
            28.791         -3.948        -3.830
            -1.929         32.378         6.403
            -2.086          6.560        32.123

Paramagnetic contribution to the shielding tensor (ppm): 
             2.632          0.967         0.631
            -0.222         -1.877        -2.774
            -0.331         -2.859        -1.569

Total shielding tensor (ppm): 
            31.423         -2.981        -3.199
            -2.151         30.501         3.629
            -2.417          3.701        30.553


 Diagonalized sT*s matrix:
 
 sDSO            25.767           28.094           39.431  iso=      31.097
 sPSO             1.085            0.678           -2.578  iso=      -0.272
        ---------------  ---------------  ---------------
 Total           26.852           28.772           36.853  iso=      30.826

 --------------
 Nucleus   5H :
 --------------

Diamagnetic contribution to the shielding tensor (ppm) : 
            29.021         -3.443        -3.933
            -4.928         28.037         5.682
            -5.170          5.569        28.017

Paramagnetic contribution to the shielding tensor (ppm): 
             2.403          0.451         0.744
             2.770          2.507        -2.054
             2.760         -1.871         2.490

Total shielding tensor (ppm): 
            31.424         -2.992        -3.190
            -2.158         30.544         3.628
            -2.411          3.698        30.507


 Diagonalized sT*s matrix:
 
 sDSO            22.381           24.758           37.936  iso=      28.359
 sPSO             4.470            4.015           -1.085  iso=       2.467
        ---------------  ---------------  ---------------
 Total           26.852           28.773           36.851  iso=      30.825

 --------------
 Nucleus   6H :
 --------------

Diamagnetic contribution to the shielding tensor (ppm) : 
            28.790          5.469        -2.063
             6.728         32.214        -3.547
            -2.556         -3.440        23.671

Paramagnetic contribution to the shielding tensor (ppm): 
             2.761         -1.358         0.441
            -3.704          1.055         1.339
             1.267          1.145         3.987

Total shielding tensor (ppm): 
            31.551          4.111        -1.622
             3.024         33.269        -2.209
            -1.288         -2.295        27.659


 Diagonalized sT*s matrix:
 
 sDSO            22.419           24.206           38.050  iso=      28.225
 sPSO             4.434            4.566           -1.196  iso=       2.601
        ---------------  ---------------  ---------------
 Total           26.853           28.772           36.854  iso=      30.826

 --------------
 Nucleus   7H :
 --------------

Diamagnetic contribution to the shielding tensor (ppm) : 
            30.483         -1.189         5.757
            -1.769         22.915        -2.141
             7.322         -2.194        31.489

Paramagnetic contribution to the shielding tensor (ppm): 
             1.952          0.104        -1.293
             0.938          4.270         0.722
            -3.970          0.788         1.371

Total shielding tensor (ppm): 
            32.434         -1.085         4.464
            -0.831         27.185        -1.418
             3.352         -1.405        32.860


 Diagonalized sT*s matrix:
 
 sDSO            22.401           24.494           37.991  iso=      28.295
 sPSO             4.452            4.279           -1.138  iso=       2.531
        ---------------  ---------------  ---------------
 Total           26.853           28.773           36.854  iso=      30.826



--------------------------------
CHEMICAL SHIELDING SUMMARY (ppm)
--------------------------------


  Nucleus  Element    Isotropic     Anisotropy
  -------  -------  ------------   ------------
      0       C          178.393         13.577 
      1       C          178.395         13.578 
      2       H           30.825          9.041 
      3       H           30.825          9.041 
      4       H           30.826          9.040 
      5       H           30.825          9.039 
      6       H           30.826          9.042 
      7       H           30.826          9.041 



Maximum memory used throughout the entire EPRNMR-calculation: 13.0 MB

----------------------------------------------------------------------------
                           ORCA NUMERICAL FREQUENCIES
                              (5-process run)
----------------------------------------------------------------------------

Number of atoms                ... 8
Central differences            ... used
Number of displacements        ... 48
Numerical increment            ... 5.000e-03 bohr
IR-spectrum generation         ... on
Raman-spectrum generation      ... off
Surface Crossing Hessian       ... off

The output will be reduced. Please look at the following files:
SCF program output             ... >C2N2_60.lastscf
Integral program output        ... >C2N2_60.lastint
Gradient program output        ... >C2N2_60.lastgrad
Dipole moment program output   ... >C2N2_60.lastmom
AutoCI program output          ... >C2N2_60.lastautoci

	<< Calculating on displaced geometry   5 (of  48) >>
	<< Calculating on displaced geometry   3 (of  48) >>
	<< Calculating on displaced geometry   4 (of  48) >>
	<< Calculating on displaced geometry   2 (of  48) >>
	<< Calculating on displaced geometry   1 (of  48) >>
	<< Calculating on displaced geometry   7 (of  48) >>
	<< Calculating on displaced geometry   6 (of  48) >>
	<< Calculating on displaced geometry   8 (of  48) >>
	<< Calculating on displaced geometry   9 (of  48) >>
	<< Calculating on displaced geometry  10 (of  48) >>
	<< Calculating on displaced geometry  13 (of  48) >>
	<< Calculating on displaced geometry  11 (of  48) >>
	<< Calculating on displaced geometry  12 (of  48) >>
	<< Calculating on displaced geometry  14 (of  48) >>
	<< Calculating on displaced geometry  15 (of  48) >>
	<< Calculating on displaced geometry  16 (of  48) >>
	<< Calculating on displaced geometry  17 (of  48) >>
	<< Calculating on displaced geometry  18 (of  48) >>
	<< Calculating on displaced geometry  20 (of  48) >>
	<< Calculating on displaced geometry  19 (of  48) >>
	<< Calculating on displaced geometry  21 (of  48) >>
	<< Calculating on displaced geometry  22 (of  48) >>
	<< Calculating on displaced geometry  23 (of  48) >>
	<< Calculating on displaced geometry  25 (of  48) >>
	<< Calculating on displaced geometry  24 (of  48) >>
	<< Calculating on displaced geometry  26 (of  48) >>
	<< Calculating on displaced geometry  27 (of  48) >>
	<< Calculating on displaced geometry  28 (of  48) >>
	<< Calculating on displaced geometry  29 (of  48) >>
	<< Calculating on displaced geometry  30 (of  48) >>
	<< Calculating on displaced geometry  31 (of  48) >>
	<< Calculating on displaced geometry  32 (of  48) >>
	<< Calculating on displaced geometry  33 (of  48) >>
	<< Calculating on displaced geometry  34 (of  48) >>
	<< Calculating on displaced geometry  35 (of  48) >>
	<< Calculating on displaced geometry  36 (of  48) >>
	<< Calculating on displaced geometry  37 (of  48) >>
	<< Calculating on displaced geometry  38 (of  48) >>
	<< Calculating on displaced geometry  39 (of  48) >>
	<< Calculating on displaced geometry  40 (of  48) >>
	<< Calculating on displaced geometry  41 (of  48) >>
	<< Calculating on displaced geometry  42 (of  48) >>
	<< Calculating on displaced geometry  43 (of  48) >>
	<< Calculating on displaced geometry  44 (of  48) >>
	<< Calculating on displaced geometry  45 (of  48) >>
	<< Calculating on displaced geometry  46 (of  48) >>
	<< Calculating on displaced geometry  47 (of  48) >>
	<< Calculating on displaced geometry  48 (of  48) >>

-----------------------
VIBRATIONAL FREQUENCIES
-----------------------

Scaling factor for frequencies =  1.000000000 (already applied!)

   0:         0.00 cm**-1
   1:         0.00 cm**-1
   2:         0.00 cm**-1
   3:         0.00 cm**-1
   4:         0.00 cm**-1
   5:         0.00 cm**-1
   6:       327.82 cm**-1
   7:       823.28 cm**-1
   8:       824.35 cm**-1
   9:       986.23 cm**-1
  10:      1216.90 cm**-1
  11:      1217.48 cm**-1
  12:      1385.40 cm**-1
  13:      1395.19 cm**-1
  14:      1492.82 cm**-1
  15:      1493.14 cm**-1
  16:      1494.22 cm**-1
  17:      1494.93 cm**-1
  18:      3045.30 cm**-1
  19:      3047.17 cm**-1
  20:      3112.47 cm**-1
  21:      3113.04 cm**-1
  22:      3136.46 cm**-1
  23:      3137.07 cm**-1


------------
NORMAL MODES
------------

These modes are the cartesian displacements weighted by the diagonal matrix
M(i,i)=1/sqrt(m[i]) where m[i] is the mass of the displaced atom
Thus, these vectors are normalized but *not* orthogonal

                  0          1          2          3          4          5    
      0       0.000000   0.000000   0.000000   0.000000   0.000000   0.000000
      1       0.000000   0.000000   0.000000   0.000000   0.000000   0.000000
      2       0.000000   0.000000   0.000000   0.000000   0.000000   0.000000
      3       0.000000   0.000000   0.000000   0.000000   0.000000   0.000000
      4       0.000000   0.000000   0.000000   0.000000   0.000000   0.000000
      5       0.000000   0.000000   0.000000   0.000000   0.000000   0.000000
      6       0.000000   0.000000   0.000000   0.000000   0.000000   0.000000
      7       0.000000   0.000000   0.000000   0.000000   0.000000   0.000000
      8       0.000000   0.000000   0.000000   0.000000   0.000000   0.000000
      9       0.000000   0.000000   0.000000   0.000000   0.000000   0.000000
     10       0.000000   0.000000   0.000000   0.000000   0.000000   0.000000
     11       0.000000   0.000000   0.000000   0.000000   0.000000   0.000000
     12       0.000000   0.000000   0.000000   0.000000   0.000000   0.000000
     13       0.000000   0.000000   0.000000   0.000000   0.000000   0.000000
     14       0.000000   0.000000   0.000000   0.000000   0.000000   0.000000
     15       0.000000   0.000000   0.000000   0.000000   0.000000   0.000000
     16       0.000000   0.000000   0.000000   0.000000   0.000000   0.000000
     17       0.000000   0.000000   0.000000   0.000000   0.000000   0.000000
     18       0.000000   0.000000   0.000000   0.000000   0.000000   0.000000
     19       0.000000   0.000000   0.000000   0.000000   0.000000   0.000000
     20       0.000000   0.000000   0.000000   0.000000   0.000000   0.000000
     21       0.000000   0.000000   0.000000   0.000000   0.000000   0.000000
     22       0.000000   0.000000   0.000000   0.000000   0.000000   0.000000
     23       0.000000   0.000000   0.000000   0.000000   0.000000   0.000000
                  6          7          8          9         10         11    
      0       0.000121  -0.001812  -0.003294   0.331711   0.005399  -0.009975
      1       0.000031   0.043694  -0.017300   0.002668  -0.133922  -0.050457
      2      -0.000069  -0.017231  -0.043621  -0.026005   0.050205  -0.133654
      3      -0.000200  -0.001855  -0.003265  -0.331717  -0.005432   0.009942
      4       0.000034   0.043631  -0.017517  -0.002676   0.133872   0.050538
      5      -0.000061  -0.017473  -0.043558   0.026003  -0.050261   0.133627
      6       0.030905   0.512303  -0.027663   0.359042  -0.498418  -0.013733
      7       0.117744  -0.134535   0.076154  -0.004560   0.041801   0.079713
      8       0.390144   0.021444   0.211596  -0.027843   0.005896   0.254920
      9      -0.004325  -0.284993  -0.405431   0.358297   0.273967  -0.406229
     10      -0.397382  -0.198956   0.092964   0.004243   0.222359   0.130752
     11      -0.093373   0.064653   0.181844  -0.035215   0.000997   0.108844
     12      -0.025160  -0.205536   0.472204   0.359721   0.204146   0.453296
     13       0.279271  -0.186845   0.038078   0.007672   0.181493  -0.042623
     14      -0.296117   0.120412   0.125987  -0.022529  -0.174270   0.082443
     15      -0.025881  -0.206969   0.471544  -0.359517  -0.205076  -0.452619
     16       0.277535  -0.186422   0.038072  -0.008755  -0.180056   0.042794
     17      -0.297596   0.120836   0.126370   0.023723   0.174967  -0.083582
     18       0.030228   0.512613  -0.026034  -0.359196   0.498393   0.012731
     19       0.119964  -0.134581   0.076733   0.004103  -0.042002  -0.081312
     20       0.389599   0.021219   0.211400   0.026308  -0.006919  -0.254406
     21      -0.004820  -0.283731  -0.406473  -0.358277  -0.272616   0.406944
     22      -0.397912  -0.199194   0.092860  -0.002598  -0.223002  -0.130296
     23      -0.091100   0.064953   0.181604   0.035588  -0.000001  -0.107896
                 12         13         14         15         16         17    
      0       0.092911  -0.101376  -0.001441  -0.000015  -0.003841   0.000836
      1       0.000808  -0.001270   0.008105  -0.019307   0.015494   0.047102
      2      -0.007336   0.008029  -0.017951  -0.006362  -0.047320   0.016246
      3       0.093611   0.100708   0.001536   0.000313  -0.003798   0.000823
      4       0.000874   0.001284  -0.008703   0.018273   0.016975   0.046920
      5      -0.007371  -0.007974   0.018943   0.010279  -0.046138   0.016333
      6      -0.373369   0.372802  -0.166271   0.248479  -0.095811  -0.208266
      7       0.149862  -0.155907   0.173408   0.004063   0.189913   0.005123
      8      -0.016804   0.019130   0.337587   0.293643   0.405267  -0.302418
      9      -0.357062   0.356438   0.275259   0.050967   0.220481  -0.027199
     10      -0.040236   0.042601  -0.061561   0.466749  -0.003062  -0.504243
     11       0.183892  -0.189724  -0.150619   0.088752  -0.144668  -0.104142
     12      -0.376975   0.377213  -0.067646  -0.288388  -0.078144   0.225538
     13      -0.119466   0.124333  -0.336507   0.041399  -0.361429  -0.063244
     14      -0.079742   0.083567   0.310437  -0.178069   0.311950   0.212969
     15      -0.379664  -0.374464   0.066799   0.295363  -0.050743   0.224288
     16      -0.120984  -0.124339   0.343578  -0.009861  -0.354199  -0.058408
     17      -0.079588  -0.082047  -0.321320   0.152083   0.321393   0.209085
     18      -0.375992  -0.370182   0.170603  -0.240494  -0.113415  -0.205414
     19       0.150696   0.154459  -0.179284  -0.022010   0.186504   0.001731
     20      -0.017844  -0.020209  -0.342470  -0.328720   0.368061  -0.304043
     21      -0.359477  -0.353840  -0.279877  -0.069471   0.208653  -0.028716
     22      -0.039923  -0.041317   0.067499  -0.468020  -0.044615  -0.501290
     23       0.185332   0.188627   0.154560  -0.074363  -0.148384  -0.099650
                 18         19         20         21         22         23    
      0      -0.036358   0.031263   0.003348   0.004197  -0.002430  -0.004717
      1      -0.000031   0.000224   0.047984  -0.045094  -0.055723   0.034489
      2       0.003275  -0.002637   0.044231   0.047909  -0.035062  -0.055595
      3       0.032488   0.035256  -0.003509  -0.004048  -0.002509  -0.004712
      4      -0.000206  -0.000103  -0.047650   0.043903  -0.056351   0.035462
      5      -0.002972  -0.003043  -0.044415  -0.047395  -0.034633  -0.056148
      6       0.129324  -0.113584  -0.092014   0.159090   0.120666  -0.137987
      7       0.389403  -0.348361  -0.261222   0.453469   0.336130  -0.385636
      8      -0.127507   0.113886   0.100200  -0.141253  -0.121578   0.118154
      9       0.172366  -0.152073  -0.119391  -0.210590   0.079437   0.229435
     10      -0.091224   0.081482   0.073942   0.099217  -0.052163  -0.110677
     11       0.380733  -0.340776  -0.249892  -0.446529   0.162958   0.478197
     12       0.123469  -0.107333   0.171314   0.000955  -0.171134  -0.035255
     13      -0.297910   0.264183  -0.389859  -0.010333   0.379970   0.085419
     14      -0.291561   0.258343  -0.382487   0.011297   0.376434   0.066063
     15      -0.110769  -0.121735  -0.170716  -0.001726  -0.171532  -0.033717
     16       0.267625   0.299941   0.390045   0.011948   0.382326   0.082330
     17       0.259223   0.290374   0.378540  -0.009389   0.374938   0.061916
     18      -0.114606  -0.126785   0.090520  -0.156121   0.122214  -0.141694
     19      -0.344356  -0.388079   0.257015  -0.445104   0.340424  -0.396088
     20       0.114784   0.129089  -0.100364   0.141113  -0.124996   0.123893
     21      -0.153674  -0.171111   0.122205   0.206613   0.079204   0.231567
     22       0.079291   0.089392  -0.073898  -0.095004  -0.051256  -0.108854
     23      -0.339279  -0.383242   0.256200   0.438633   0.162716   0.483271


-----------
IR SPECTRUM
-----------

 Mode   freq       eps      Int      T**2         TX        TY        TZ
       cm**-1   L/(mol*cm) km/mol    a.u.
----------------------------------------------------------------------------
  6:    327.82   0.000004    0.02  0.000004  (-0.000179  0.001303 -0.001593)
  7:    823.28   0.001133    5.72  0.000429  ( 0.000701 -0.019404  0.007237)
  8:    824.35   0.001254    6.34  0.000475  ( 0.001763  0.008577  0.019955)
  9:    986.23   0.000000    0.00  0.000000  ( 0.000001  0.000001  0.000001)
 10:   1216.90   0.000000    0.00  0.000000  (-0.000000 -0.000013 -0.000030)
 11:   1217.48   0.000000    0.00  0.000000  ( 0.000001  0.000022 -0.000005)
 12:   1385.40   0.000676    3.42  0.000152  (-0.012297 -0.000311  0.001000)
 13:   1395.19   0.000000    0.00  0.000000  ( 0.000042 -0.000006 -0.000001)
 14:   1492.82   0.000000    0.00  0.000000  (-0.000017  0.000100 -0.000191)
 15:   1493.14   0.000003    0.01  0.000001  (-0.000066  0.000123 -0.000766)
 16:   1494.22   0.001757    8.88  0.000367  ( 0.001620 -0.005000  0.018419)
 17:   1494.93   0.002248   11.36  0.000469  (-0.000694 -0.020175 -0.007863)
 18:   3045.30   0.000035    0.18  0.000004  (-0.001887 -0.000085  0.000114)
 19:   3047.17   0.010321   52.16  0.001057  ( 0.032435  0.000536 -0.002169)
 20:   3112.47   0.000000    0.00  0.000000  (-0.000069  0.000090 -0.000058)
 21:   3113.04   0.000001    0.00  0.000000  ( 0.000059 -0.000266  0.000140)
 22:   3136.46   0.009644   48.74  0.000960  (-0.001276 -0.026209 -0.016462)
 23:   3137.07   0.009762   49.33  0.000971  (-0.002223  0.016421 -0.026390)

* The epsilon (eps) is given for a Dirac delta lineshape.
** The dipole moment derivative (T) already includes vibrational overlap.

The first frequency considered to be a vibration is 6
The total number of vibrations considered is 18


--------------------------
THERMOCHEMISTRY AT 298.15K
--------------------------

Temperature         ... 298.15 K
Pressure            ... 1.00 atm
Total Mass          ... 30.07 AMU

Throughout the following assumptions are being made:
  (1) The electronic state is orbitally nondegenerate
  (2) There are no thermally accessible electronically excited states
  (3) Hindered rotations indicated by low frequency modes are not
      treated as such but are treated as vibrations and this may
      cause some error
  (4) All equations used are the standard statistical mechanics
      equations for an ideal gas
  (5) All vibrations are strictly harmonic

freq.     327.82  E(vib)   ...       0.24 
freq.     823.28  E(vib)   ...       0.05 
freq.     824.35  E(vib)   ...       0.04 
freq.     986.23  E(vib)   ...       0.02 
freq.    1216.90  E(vib)   ...       0.01 
freq.    1217.48  E(vib)   ...       0.01 
freq.    1385.40  E(vib)   ...       0.00 
freq.    1395.19  E(vib)   ...       0.00 
freq.    1492.82  E(vib)   ...       0.00 
freq.    1493.14  E(vib)   ...       0.00 
freq.    1494.22  E(vib)   ...       0.00 
freq.    1494.93  E(vib)   ...       0.00 
freq.    3045.30  E(vib)   ...       0.00 
freq.    3047.17  E(vib)   ...       0.00 
freq.    3112.47  E(vib)   ...       0.00 
freq.    3113.04  E(vib)   ...       0.00 
freq.    3136.46  E(vib)   ...       0.00 
freq.    3137.07  E(vib)   ...       0.00 

------------
INNER ENERGY
------------

The inner energy is: U= E(el) + E(ZPE) + E(vib) + E(rot) + E(trans)
    E(el)   - is the total energy from the electronic structure calculation
              = E(kin-el) + E(nuc-el) + E(el-el) + E(nuc-nuc)
    E(ZPE)  - the the zero temperature vibrational energy from the frequency calculation
    E(vib)  - the the finite temperature correction to E(ZPE) due to population
              of excited vibrational states
    E(rot)  - is the rotational thermal energy
    E(trans)- is the translational thermal energy

Summary of contributions to the inner energy U:
Electronic energy                ...    -79.75002740 Eh
Zero point energy                ...      0.07459464 Eh      46.81 kcal/mol
Thermal vibrational correction   ...      0.00063598 Eh       0.40 kcal/mol
Thermal rotational correction    ...      0.00141627 Eh       0.89 kcal/mol
Thermal translational correction ...      0.00141627 Eh       0.89 kcal/mol
-----------------------------------------------------------------------
Total thermal energy                    -79.67196424 Eh


Summary of corrections to the electronic energy:
(perhaps to be used in another calculation)
Total thermal correction                  0.00346852 Eh       2.18 kcal/mol
Non-thermal (ZPE) correction              0.07459464 Eh      46.81 kcal/mol
-----------------------------------------------------------------------
Total correction                          0.07806316 Eh      48.99 kcal/mol


--------
ENTHALPY
--------

The enthalpy is H = U + kB*T
                kB is Boltzmann's constant
Total free energy                 ...    -79.67196424 Eh 
Thermal Enthalpy correction       ...      0.00094421 Eh       0.59 kcal/mol
-----------------------------------------------------------------------
Total Enthalpy                    ...    -79.67102003 Eh


Note: Rotational entropy computed according to Herzberg 
Infrared and Raman Spectra, Chapter V,1, Van Nostrand Reinhold, 1945 
Point Group:  D3, Symmetry Number:   6  
Rotational constants in cm-1:     2.659367     0.665332     0.665326 

Vibrational entropy computed according to the QRRHO of S. Grimme
Chem.Eur.J. 2012 18 9955


-------
ENTROPY
-------

The entropy contributions are T*S = T*(S(el)+S(vib)+S(rot)+S(trans))
     S(el)   - electronic entropy
     S(vib)  - vibrational entropy
     S(rot)  - rotational entropy
     S(trans)- translational entropy
The entropies will be listed as multiplied by the temperature to get
units of energy

Electronic entropy                ...      0.00000000 Eh      0.00 kcal/mol
Vibrational entropy               ...      0.00090942 Eh      0.57 kcal/mol
Rotational entropy                ...      0.00774205 Eh      4.86 kcal/mol
Translational entropy             ...      0.01716939 Eh     10.77 kcal/mol
-----------------------------------------------------------------------
Final entropy term                ...      0.02582086 Eh     16.20 kcal/mol

In case the symmetry of your molecule has not been determined correctly
or in case you have a reason to use a different symmetry number we print 
out the resulting rotational entropy values for sn=1,12 :
 --------------------------------------------------------
|  sn= 1 | S(rot)=       0.00943379 Eh      5.92 kcal/mol|
|  sn= 2 | S(rot)=       0.00877934 Eh      5.51 kcal/mol|
|  sn= 3 | S(rot)=       0.00839650 Eh      5.27 kcal/mol|
|  sn= 4 | S(rot)=       0.00812488 Eh      5.10 kcal/mol|
|  sn= 5 | S(rot)=       0.00791419 Eh      4.97 kcal/mol|
|  sn= 6 | S(rot)=       0.00774205 Eh      4.86 kcal/mol|
|  sn= 7 | S(rot)=       0.00759650 Eh      4.77 kcal/mol|
|  sn= 8 | S(rot)=       0.00747042 Eh      4.69 kcal/mol|
|  sn= 9 | S(rot)=       0.00735922 Eh      4.62 kcal/mol|
|  sn=10 | S(rot)=       0.00725974 Eh      4.56 kcal/mol|
|  sn=11 | S(rot)=       0.00716975 Eh      4.50 kcal/mol|
|  sn=12 | S(rot)=       0.00708759 Eh      4.45 kcal/mol|
 --------------------------------------------------------


-------------------
GIBBS FREE ENERGY
-------------------

The Gibbs free energy is G = H - T*S

Total enthalpy                    ...    -79.67102003 Eh 
Total entropy correction          ...     -0.02582086 Eh    -16.20 kcal/mol
-----------------------------------------------------------------------
Final Gibbs free energy         ...    -79.69684089 Eh

For completeness - the Gibbs free energy minus the electronic energy
G-E(el)                           ...      0.05318651 Eh     33.37 kcal/mol



Timings for individual modules:

Sum of individual times         ...      216.129 sec (=   3.602 min)
GTO integral calculation        ...        6.145 sec (=   0.102 min)   2.8 %
SCF iterations                  ...        9.813 sec (=   0.164 min)   4.5 %
EPR/NMR calculation             ...        2.880 sec (=   0.048 min)   1.3 %
SCF Gradient evaluation         ...        4.864 sec (=   0.081 min)   2.3 %
Numerical frequency calculation ...      192.427 sec (=   3.207 min)  89.0 %
                             ****ORCA TERMINATED NORMALLY****
TOTAL RUN TIME: 0 days 0 hours 3 minutes 28 seconds 701 msec
