
                                 *****************
                                 * O   R   C   A *
                                 *****************

                                            #,                                       
                                            ###                                      
                                            ####                                     
                                            #####                                    
                                            ######                                   
                                           ########,                                 
                                     ,,################,,,,,                         
                               ,,#################################,,                 
                          ,,##########################################,,             
                       ,#########################################, ''#####,          
                    ,#############################################,,   '####,        
                  ,##################################################,,,,####,       
                ,###########''''           ''''###############################       
              ,#####''   ,,,,##########,,,,          '''####'''          '####       
            ,##' ,,,,###########################,,,                        '##       
           ' ,,###''''                  '''############,,,                           
         ,,##''                                '''############,,,,        ,,,,,,###''
      ,#''                                            '''#######################'''  
     '                                                          ''''####''''         
             ,#######,   #######,   ,#######,      ##                                
            ,#'     '#,  ##    ##  ,#'     '#,    #''#        ######   ,####,        
            ##       ##  ##   ,#'  ##            #'  '#       #        #'  '#        
            ##       ##  #######   ##           ,######,      #####,   #    #        
            '#,     ,#'  ##    ##  '#,     ,#' ,#      #,         ##   #,  ,#        
             '#######'   ##     ##  '#######'  #'      '#     #####' # '####'        



                  #######################################################
                  #                        -***-                        #
                  #          Department of theory and spectroscopy      #
                  #    Directorship and core code : Frank Neese         #
                  #        Max Planck Institute fuer Kohlenforschung    #
                  #                Kaiser Wilhelm Platz 1               #
                  #                 D-45470 Muelheim/Ruhr               #
                  #                      Germany                        #
                  #                                                     #
                  #                  All rights reserved                #
                  #                        -***-                        #
                  #######################################################


                         Program Version 5.0.3 -  RELEASE  -


 With contributions from (in alphabetic order):
   Daniel Aravena         : Magnetic Suceptibility
   Michael Atanasov       : Ab Initio Ligand Field Theory (pilot matlab implementation)
   Alexander A. Auer      : GIAO ZORA, VPT2 properties, NMR spectrum
   Ute Becker             : Parallelization
   Giovanni Bistoni       : ED, misc. LED, open-shell LED, HFLD
   Martin Brehm           : Molecular dynamics
   Dmytro Bykov           : SCF Hessian
   Vijay G. Chilkuri      : MRCI spin determinant printing, contributions to CSF-ICE
   Dipayan Datta          : RHF DLPNO-CCSD density
   Achintya Kumar Dutta   : EOM-CC, STEOM-CC
   Dmitry Ganyushin       : Spin-Orbit,Spin-Spin,Magnetic field MRCI
   Miquel Garcia          : C-PCM and meta-GGA Hessian, CC/C-PCM, Gaussian charge scheme
   Yang Guo               : DLPNO-NEVPT2, F12-NEVPT2, CIM, IAO-localization
   Andreas Hansen         : Spin unrestricted coupled pair/coupled cluster methods
   Benjamin Helmich-Paris : MC-RPA, TRAH-SCF, COSX integrals
   Lee Huntington         : MR-EOM, pCC
   Robert Izsak           : Overlap fitted RIJCOSX, COSX-SCS-MP3, EOM
   Marcus Kettner         : VPT2
   Christian Kollmar      : KDIIS, OOCD, Brueckner-CCSD(T), CCSD density, CASPT2, CASPT2-K
   Simone Kossmann        : Meta GGA functionals, TD-DFT gradient, OOMP2, MP2 Hessian
   Martin Krupicka        : Initial AUTO-CI
   Lucas Lang             : DCDCAS
   Marvin Lechner         : AUTO-CI (C++ implementation), FIC-MRCC
   Dagmar Lenk            : GEPOL surface, SMD
   Dimitrios Liakos       : Extrapolation schemes; Compound Job, initial MDCI parallelization
   Dimitrios Manganas     : Further ROCIS development; embedding schemes
   Dimitrios Pantazis     : SARC Basis sets
   Anastasios Papadopoulos: AUTO-CI, single reference methods and gradients
   Taras Petrenko         : DFT Hessian,TD-DFT gradient, ASA, ECA, R-Raman, ABS, FL, XAS/XES, NRVS
   Peter Pinski           : DLPNO-MP2, DLPNO-MP2 Gradient
   Christoph Reimann      : Effective Core Potentials
   Marius Retegan         : Local ZFS, SOC
   Christoph Riplinger    : Optimizer, TS searches, QM/MM, DLPNO-CCSD(T), (RO)-DLPNO pert. Triples
   Tobias Risthaus        : Range-separated hybrids, TD-DFT gradient, RPA, STAB
   Michael Roemelt        : Original ROCIS implementation
   Masaaki Saitow         : Open-shell DLPNO-CCSD energy and density
   Barbara Sandhoefer     : DKH picture change effects
   Avijit Sen             : IP-ROCIS
   Kantharuban Sivalingam : CASSCF convergence, NEVPT2, FIC-MRCI
   Bernardo de Souza      : ESD, SOC TD-DFT
   Georgi Stoychev        : AutoAux, RI-MP2 NMR, DLPNO-MP2 response
   Willem Van den Heuvel  : Paramagnetic NMR
   Boris Wezisla          : Elementary symmetry handling
   Frank Wennmohs         : Technical directorship


 We gratefully acknowledge several colleagues who have allowed us to
 interface, adapt or use parts of their codes:
   Stefan Grimme, W. Hujo, H. Kruse, P. Pracht,  : VdW corrections, initial TS optimization,
                  C. Bannwarth, S. Ehlert          DFT functionals, gCP, sTDA/sTD-DF
   Ed Valeev, F. Pavosevic, A. Kumar             : LibInt (2-el integral package), F12 methods
   Garnet Chan, S. Sharma, J. Yang, R. Olivares  : DMRG
   Ulf Ekstrom                                   : XCFun DFT Library
   Mihaly Kallay                                 : mrcc  (arbitrary order and MRCC methods)
   Jiri Pittner, Ondrej Demel                    : Mk-CCSD
   Frank Weinhold                                : gennbo (NPA and NBO analysis)
   Christopher J. Cramer and Donald G. Truhlar   : smd solvation model
   Lars Goerigk                                  : TD-DFT with DH, B97 family of functionals
   V. Asgeirsson, H. Jonsson                     : NEB implementation
   FAccTs GmbH                                   : IRC, NEB, NEB-TS, DLPNO-Multilevel, CI-OPT
                                                   MM, QMMM, 2- and 3-layer-ONIOM, Crystal-QMMM,
                                                   LR-CPCM, SF, NACMEs, symmetry and pop. for TD-DFT,
                                                   nearIR, NL-DFT gradient (VV10), updates on ESD,
                                                   ML-optimized integration grids
   S Lehtola, MJT Oliveira, MAL Marques          : LibXC Library
   Liviu Ungur et al                             : ANISO software


 Your calculation uses the libint2 library for the computation of 2-el integrals
 For citations please refer to: http://libint.valeyev.net

 Your ORCA version has been built with support for libXC version: 5.1.0
 For citations please refer to: https://tddft.org/programs/libxc/

 This ORCA versions uses:
   CBLAS   interface :  Fast vector & matrix operations
   LAPACKE interface :  Fast linear algebra routines
   Shared memory     :  Shared parallel matrices


SCAN-COORDS
================================================================================

----- Orbital basis set information -----
Your calculation utilizes the basis: def2-SVP
   F. Weigend and R. Ahlrichs, Phys. Chem. Chem. Phys. 7, 3297 (2005).

----- AuxJ basis set information -----
Your calculation utilizes the auxiliary basis: def2/J
   F. Weigend, Phys. Chem. Chem. Phys. 8, 1057 (2006).

================================================================================
                                        WARNINGS
                       Please study these warnings very carefully!
================================================================================


WARNING: The environment variable RSH_COMMAND is not set!
  ===> : All Displacements for the Numerical Hessian or Gradient calculation
         will be started on localhost

WARNING: Geometry Optimization
  ===> : Switching off AutoStart
         For restart on a previous wavefunction, please use MOREAD

INFO   : the flag for use of the SHARK integral package has been found!

================================================================================
                                       INPUT FILE
================================================================================
NAME = MnOOH_Solv_COMPLETE.inp
|  1> ! PAL5 VWN
|  2> %method
|  3>         method DFT
|  4>         runtyp OPT
|  5> end
|  6> 
|  7> %cpcm
|  8>        epsilon 80.4
|  9>        refrac 1.33
| 10>        fepstype cosmo
| 11> end
| 12> %scf                  
| 13>        MaxIter 1000
| 14> 	 CNVDIIS 1
| 15> 	 CNVSOSCF 1
| 16> end
| 17> %geom                  
| 18>        MaxIter 1000
| 19>        Convergence loose                                                  
| 20> end
| 21> 
| 22> %basis
| 23>         basis "def2-SVP"
| 24> end
| 25> ! NumFreq
| 26> %elprop
| 27>         Polar 1
| 28> end
| 29> %output
| 30>         XYZFile true
| 31> end
| 32> %coords
| 33>         CTyp xyz
| 34>         Charge 0
| 35>         Mult 1
| 36>         Units Angs
| 37>         coords
| 38> 	Mn    2.123573    0.872756   0.0
| 39> 	O     0.500738    1.439585   0.0
| 40> 	O     3.943034    0.237503    0.0
| 41> 	H      3.861376    -0.749322    0.0
| 42>         end
| 43> endd                         ****END OF INPUT****
================================================================================

                       *****************************
                       * Geometry Optimization Run *
                       *****************************

Geometry optimization settings:
Update method            Update   .... BFGS
Choice of coordinates    CoordSys .... Z-matrix Internals
Initial Hessian          InHess   .... Almoef's Model

Convergence Tolerances:
Energy Change            TolE     ....  3.0000e-05 Eh
Max. Gradient            TolMAXG  ....  2.0000e-03 Eh/bohr
RMS Gradient             TolRMSG  ....  5.0000e-04 Eh/bohr
Max. Displacement        TolMAXD  ....  1.0000e-02 bohr
RMS Displacement         TolRMSD  ....  7.0000e-03 bohr
Strict Convergence                ....  False
------------------------------------------------------------------------------
                        ORCA OPTIMIZATION COORDINATE SETUP
------------------------------------------------------------------------------

The optimization will be done in new redundant internal coordinates
Making redundant internal coordinates   ...  (new redundants) done
Evaluating the initial hessian          ...  (Almloef) done
Evaluating the coordinates              ...  done
Calculating the B-matrix                .... done
Calculating the G-matrix                .... done
Diagonalizing the G-matrix              .... done
The first mode is                       ....    0
The number of degrees of freedom        ....    6

    -----------------------------------------------------------------
                    Redundant Internal Coordinates


    -----------------------------------------------------------------
         Definition                    Initial Value    Approx d2E/dq
    -----------------------------------------------------------------
      1. B(O   1,Mn  0)                  1.7190         1.690968   
      2. B(O   2,Mn  0)                  1.9272         0.787009   
      3. B(H   3,O   2)                  0.9902         0.465359   
      4. L(O   1,Mn  0,O   2,H   3, 2) 180.0000         0.691564   
      5. L(O   1,Mn  0,O   2,H   3, 1) 180.0071         0.691564   
      6. A(Mn  0,O   2,H   3)          104.5160         0.423989   
    -----------------------------------------------------------------

Number of atoms                         .... 4
Number of degrees of freedom            .... 6

         *************************************************************
         *                GEOMETRY OPTIMIZATION CYCLE   1            *
         *************************************************************
---------------------------------
CARTESIAN COORDINATES (ANGSTROEM)
---------------------------------
  Mn     2.123573    0.872756    0.000000
  O      0.500738    1.439585    0.000000
  O      3.943034    0.237503    0.000000
  H      3.861376   -0.749322    0.000000

----------------------------
CARTESIAN COORDINATES (A.U.)
----------------------------
  NO LB      ZA    FRAG     MASS         X           Y           Z
   0 Mn   25.0000    0    54.940    4.012971    1.649270    0.000000
   1 O     8.0000    0    15.999    0.946258    2.720421    0.000000
   2 O     8.0000    0    15.999    7.451254    0.448816    0.000000
   3 H     1.0000    0     1.008    7.296943   -1.416013    0.000000

--------------------------------
INTERNAL COORDINATES (ANGSTROEM)
--------------------------------
 Mn     0   0   0     0.000000000000     0.00000000     0.00000000
 O      1   0   0     1.718978927290     0.00000000     0.00000000
 O      1   2   0     1.927170128590   179.99286637     0.00000000
 H      3   1   2     0.990197762868   104.51597067   180.00000000

---------------------------
INTERNAL COORDINATES (A.U.)
---------------------------
 Mn     0   0   0     0.000000000000     0.00000000     0.00000000
 O      1   0   0     3.248399402559     0.00000000     0.00000000
 O      1   2   0     3.641823756509   179.99286637     0.00000000
 H      3   1   2     1.871202590242   104.51597067   180.00000000

---------------------
BASIS SET INFORMATION
---------------------
There are 3 groups of distinct atoms

 Group   1 Type Mn  : 14s9p5d1f contracted to 5s3p2d1f pattern {63311/531/41/1}
 Group   2 Type O   : 7s4p1d contracted to 3s2p1d pattern {511/31/1}
 Group   3 Type H   : 4s1p contracted to 2s1p pattern {31/1}

Atom   0Mn   basis set group =>   1
Atom   1O    basis set group =>   2
Atom   2O    basis set group =>   2
Atom   3H    basis set group =>   3
---------------------------------
AUXILIARY/J BASIS SET INFORMATION
---------------------------------
There are 3 groups of distinct atoms

 Group   1 Type Mn  : 19s5p5d3f3g contracted to 8s5p5d2f3g pattern {121111111/11111/11111/21/111}
 Group   2 Type O   : 12s5p4d2f1g contracted to 6s4p3d1f1g pattern {711111/2111/211/2/1}
 Group   3 Type H   : 5s2p1d contracted to 3s1p1d pattern {311/2/1}

Atom   0Mn   basis set group =>   1
Atom   1O    basis set group =>   2
Atom   2O    basis set group =>   2
Atom   3H    basis set group =>   3


           ************************************************************
           *        Program running with 5 parallel MPI-processes     *
           *              working on a common directory               *
           ************************************************************
------------------------------------------------------------------------------
                           ORCA GTO INTEGRAL CALCULATION
                           -- RI-GTO INTEGRALS CHOSEN --
------------------------------------------------------------------------------
------------------------------------------------------------------------------
                   ___                                                        
                  /   \      - P O W E R E D   B Y -                         
                 /     \                                                     
                 |  |  |   _    _      __       _____    __    __             
                 |  |  |  | |  | |    /  \     |  _  \  |  |  /  |          
                  \  \/   | |  | |   /    \    | | | |  |  | /  /          
                 / \  \   | |__| |  /  /\  \   | |_| |  |  |/  /          
                |  |  |   |  __  | /  /__\  \  |    /   |      \           
                |  |  |   | |  | | |   __   |  |    \   |  |\   \          
                \     /   | |  | | |  |  |  |  | |\  \  |  | \   \       
                 \___/    |_|  |_| |__|  |__|  |_| \__\ |__|  \__/        
                                                                              
                      - O R C A' S   B I G   F R I E N D -                    
                                      &                                       
                       - I N T E G R A L  F E E D E R -                       
                                                                              
 v1 FN, 2020, v2 2021                                                         
------------------------------------------------------------------------------


Reading SHARK input file MnOOH_Solv_COMPLETE.SHARKINP.tmp ... ok
----------------------
SHARK INTEGRAL PACKAGE
----------------------

Number of atoms                             ...      4
Number of basis functions                   ...     64
Number of shells                            ...     26
Maximum angular momentum                    ...      3
Integral batch strategy                     ... SHARK/LIBINT Hybrid
RI-J (if used) integral strategy            ... SPLIT-RIJ (Revised 2003 algorithm where possible)
Printlevel                                  ...      1
Contraction scheme used                     ... SEGMENTED contraction
Coulomb Range Separation                    ... NOT USED
Exchange Range Separation                   ... NOT USED
Finite Nucleus Model                        ... NOT USED
Auxiliary Coulomb fitting basis             ... AVAILABLE
   # of basis functions in Aux-J            ...    198
   # of shells in Aux-J                     ...     58
   Maximum angular momentum in Aux-J        ...      4
Auxiliary J/K fitting basis                 ... NOT available
Auxiliary Correlation fitting basis         ... NOT available
Auxiliary 'external' fitting basis          ... NOT available
Integral threshold                          ...     2.500000e-11
Primitive cut-off                           ...     2.500000e-12
Primitive pair pre-selection threshold      ...     2.500000e-12

Calculating pre-screening integrals         ... done (  0.0 sec) Dimension = 26
Organizing shell pair data                  ... done (  0.0 sec)
Shell pair information
Total number of shell pairs                 ...       351
Shell pairs after pre-screening             ...       337
Total number of primitive shell pairs       ...      1780
Primitive shell pairs kept                  ...      1371
          la=0 lb=0:     84 shell pairs
          la=1 lb=0:     99 shell pairs
          la=1 lb=1:     36 shell pairs
          la=2 lb=0:     50 shell pairs
          la=2 lb=1:     32 shell pairs
          la=2 lb=2:     10 shell pairs
          la=3 lb=0:     13 shell pairs
          la=3 lb=1:      8 shell pairs
          la=3 lb=2:      4 shell pairs
          la=3 lb=3:      1 shell pairs

Calculating one electron integrals          ... done (  0.0 sec)
Calculating RI/J V-Matrix + Cholesky decomp.... done (  0.0 sec)
Calculating Nuclear repulsion               ... done (  0.0 sec) ENN=    136.670843044743 Eh

SHARK setup successfully completed in   0.2 seconds

Maximum memory used throughout the entire GTOINT-calculation: 14.1 MB


           ************************************************************
           *        Program running with 5 parallel MPI-processes     *
           *              working on a common directory               *
           ************************************************************
-------------------------------------------------------------------------------
                                 ORCA SCF
-------------------------------------------------------------------------------

------------
SCF SETTINGS
------------
Hamiltonian:
 Density Functional     Method          .... DFT(GTOs)
 Exchange Functional    Exchange        .... Slater
   X-Alpha parameter    XAlpha          ....  0.666667
 Correlation Functional Correlation     .... VWN-5
 Gradients option       PostSCFGGA      .... off
   Density functional embedding theory  .... OFF
 RI-approximation to the Coulomb term is turned on
   Number of AuxJ basis functions       .... 198


General Settings:
 Integral files         IntName         .... MnOOH_Solv_COMPLETE
 Hartree-Fock type      HFTyp           .... RHF
 Total Charge           Charge          ....    0
 Multiplicity           Mult            ....    1
 Number of Electrons    NEL             ....   42
 Basis Dimension        Dim             ....   64
 Nuclear Repulsion      ENuc            ....    136.6708430447 Eh

Convergence Acceleration:
 DIIS                   CNVDIIS         .... on
   Start iteration      DIISMaxIt       ....    12
   Startup error        DIISStart       ....  0.200000
   # of expansion vecs  DIISMaxEq       ....     5
   Bias factor          DIISBfac        ....   1.050
   Max. coefficient     DIISMaxC        ....  10.000
 Trust-Rad. Augm. Hess. CNVTRAH         .... auto
   Auto Start mean grad. ratio tolernc. ....  1.125000
   Auto Start start iteration           ....    20
   Auto Start num. interpolation iter.  ....    10
   Max. Number of Micro iterations      ....    16
   Max. Number of Macro iterations      .... Maxiter - #DIIS iter
   Number of Davidson start vectors     ....     2
   Converg. threshold I  (grad. norm)   ....   1.000e-05
   Converg. threshold II (energy diff.) ....   1.000e-08
   Grad. Scal. Fac. for Micro threshold ....   0.100
   Minimum threshold for Micro iter.    ....   0.010
   NR start threshold (gradient norm)   ....   0.001
   Initial trust radius                 ....   0.400
   Minimum AH scaling param. (alpha)    ....   1.000
   Maximum AH scaling param. (alpha)    .... 1000.000
   Orbital update algorithm             .... Taylor
   White noise on init. David. guess    .... on
   Maximum white noise                  ....   0.010
   Quad. conv. algorithm                .... NR
 SOSCF                  CNVSOSCF        .... on
   Start iteration      SOSCFMaxIt      ....   150
   Startup grad/error   SOSCFStart      ....  0.003300
 Level Shifting         CNVShift        .... on
   Level shift para.    LevelShift      ....    0.2500
   Turn off err/grad.   ShiftErr        ....    0.0010
 Zerner damping         CNVZerner       .... off
 Static damping         CNVDamp         .... on
   Fraction old density DampFac         ....    0.7000
   Max. Damping (<1)    DampMax         ....    0.9800
   Min. Damping (>=0)   DampMin         ....    0.0000
   Turn off err/grad.   DampErr         ....    0.1000
 Fernandez-Rico         CNVRico         .... off

SCF Procedure:
 Maximum # iterations   MaxIter         ....  1000
 SCF integral mode      SCFMode         .... Direct
   Integral package                     .... SHARK and LIBINT hybrid scheme
 Reset frequency        DirectResetFreq ....    20
 Integral Threshold     Thresh          ....  2.500e-11 Eh
 Primitive CutOff       TCut            ....  2.500e-12 Eh

Convergence Tolerance:
 Convergence Check Mode ConvCheckMode   .... Total+1el-Energy
 Convergence forced     ConvForced      .... 0
 Energy Change          TolE            ....  1.000e-08 Eh
 1-El. energy change                    ....  1.000e-05 Eh
 Orbital Gradient       TolG            ....  1.000e-05
 Orbital Rotation angle TolX            ....  1.000e-05
 DIIS Error             TolErr          ....  5.000e-07


Diagonalization of the overlap matrix:
Smallest eigenvalue                        ... 2.583e-02
Time for diagonalization                   ...    0.002 sec
Threshold for overlap eigenvalues          ... 1.000e-08
Number of eigenvalues below threshold      ... 0
Time for construction of square roots      ...    0.008 sec
Total time needed                          ...    0.010 sec

Time for model grid setup =    0.050 sec

------------------------------
INITIAL GUESS: MODEL POTENTIAL
------------------------------
Loading Hartree-Fock densities                     ... done
Calculating cut-offs                               ... done
Initializing the effective Hamiltonian             ... done
Setting up the integral package (SHARK)            ... done
Starting the Coulomb interaction                   ... done (   0.0 sec)
Reading the grid                                   ... done
Mapping shells                                     ... done
Starting the XC term evaluation                    ... done (   0.0 sec)
  promolecular density results
     # of electrons  =     42.000051256
     EX              =    -62.461449043
     EC              =     -3.269780341
     EX+EC           =    -65.731229383
Transforming the Hamiltonian                       ... done (   0.0 sec)
Diagonalizing the Hamiltonian                      ... done (   0.0 sec)
Back transforming the eigenvectors                 ... done (   0.0 sec)
Now organizing SCF variables                       ... done
                      ------------------
                      INITIAL GUESS DONE (   0.1 sec)
                      ------------------
-------------------
DFT GRID GENERATION
-------------------

General Integration Accuracy     IntAcc      ... 4.388
Radial Grid Type                 RadialGrid  ... OptM3 with GC (2021)
Angular Grid (max. ang.)         AngularGrid ... 4 (Lebedev-302)
Angular grid pruning method      GridPruning ... 4 (adaptive)
Weight generation scheme         WeightScheme... Becke
Basis function cutoff            BFCut       ... 1.0000e-11
Integration weight cutoff        WCut        ... 1.0000e-14
Angular grids for H and He will be reduced by one unit
Partially contracted basis set               ... off
Rotationally invariant grid construction     ... off

Total number of grid points                  ...    26851
Total number of batches                      ...      422
Average number of points per batch           ...       63
Average number of grid points per atom       ...     6713
Time for grid setup =    0.215 sec


--------------------
CPCM SOLVATION MODEL
--------------------
CPCM parameters:
  Epsilon                                         ...      80.4000
  Refrac                                          ...       1.3300
  Rsolv                                           ...       1.3000
  Surface type                                    ... GAUSSIAN VDW
  Epsilon function type                           ...        COSMO
Radii:
 Radius for Mn used is    4.5353 Bohr (=   2.4000 Ang.)
 Radius for O  used is    3.4469 Bohr (=   1.8240 Ang.)
 Radius for H  used is    2.4944 Bohr (=   1.3200 Ang.)
Calculating surface                               ...        done! (  0.0s)
GEPOL surface points                              ...          306
GEPOL Volume                                      ...     542.5157
GEPOL Surface-area                                ...     342.4221
Calculating surface distance matrix               ...        done! (  0.0s)
Performing Cholesky decomposition & store         ...        done! (  0.0s)
Overall time for CPCM initialization              ...                 0.0s
--------------
SCF ITERATIONS
--------------
ITER       Energy         Delta-E        Max-DP      RMS-DP      [F,P]     Damp
               ***  Starting incremental Fock matrix formation  ***
  0  -1297.8213917493   0.000000000000 0.34202083  0.01446609  0.3636726 0.7000
  1  -1297.7330738085   0.088317940764 0.36120342  0.01283469  0.3815942 0.7000
                               ***Turning on DIIS***
  2  -1298.0078627096  -0.274788901014 0.24558797  0.00865021  0.1086785 0.7000
  3  -1297.9944160128   0.013446696769 0.17064255  0.00647864  0.1819274 0.7000
  4  -1297.9446660083   0.049750004529 0.12365985  0.00488946  0.2542752 0.7000
  5  -1297.8956915223   0.048974485933 0.09842682  0.00368259  0.2984469 0.7000
  6  -1297.8568460313   0.038845491051 0.07551065  0.00275615  0.3234656 0.7000
  7  -1297.8283114121   0.028534619180 0.06802465  0.00307950  0.3363974 0.7000
  8  -1297.8679720643  -0.039660652212 0.12130044  0.00429607  0.2845177 0.7000
  9  -1297.9527708950  -0.084798830709 0.17243888  0.00611319  0.1454545 0.7000
 10  -1298.0318517883  -0.079080893266 0.58145530  0.01696182  0.0960200 0.0000
 11  -1297.7822272310   0.249624557297 0.04389599  0.00172796  0.7154246 0.7000
 12  -1297.8304785382  -0.048251307238 0.06409442  0.00247736  0.6877581 0.7000
 13  -1297.9076956213  -0.077217083046 0.06805911  0.00295178  0.6170633 0.7000
 14  -1298.0088043208  -0.101108699537 0.06796261  0.00304514  0.4819042 0.7000
 15  -1298.1143776538  -0.105573333005 0.08067904  0.00407101  0.2957562 0.7000
 16  -1298.1917285485  -0.077350894700 0.13935934  0.00741000  0.0995583 0.0000
 17  -1298.1712192773   0.020509271218 0.01505326  0.00071810  0.2352006 0.7000
 18  -1298.1884238015  -0.017204524205 0.02282439  0.00093414  0.2080307 0.7000
 19  -1298.2073964116  -0.018972610064 0.02612516  0.00091881  0.1692303 0.7000
               *** Restarting incremental Fock matrix formation ***
                                   *** Resetting DIIS ***
 20  -1298.2224055466  -0.015009135057 0.09352893  0.00343940  0.1263542 0.7000
 21  -1298.2210475900   0.001357956595 0.13510324  0.00531469  0.0989253 0.0000

 WARNING: the maximum gradient error descreased on average only by a factor   1.1
          during the last 20 iterations

                      *** Initiating the TRAH-SCF procedure ***


TRAH GRID
---------

General Integration Accuracy     IntAcc      ... 3.467
Radial Grid Type                 RadialGrid  ... OptM3 with GC (2021)
Angular Grid (max. ang.)         AngularGrid ... 1 (Lebedev-50)
Angular grid pruning method      GridPruning ... 4 (adaptive)
Weight generation scheme         WeightScheme... Becke
Basis function cutoff            BFCut       ... 1.0000e-11
Integration weight cutoff        WCut        ... 1.0000e-14
Angular grids for H and He will be reduced by one unit
Partially contracted basis set               ... off
Rotationally invariant grid construction     ... off

Total number of grid points                  ...     6682
Total number of batches                      ...      107
Average number of points per batch           ...       62
Average number of grid points per atom       ...     1671

 --------------------------------------------------------------------------------------------
   Iter.        energy            ||Error||_2        Shift      TRadius  Mac/Mic        Rej.
 --------------------------------------------------------------------------------------------
WARNING: 8 diagonal Hessian elements are negative!
    0      -1298.089912543527     1.843243e+00                     0.400 (TRAH MAcro)   No
WARNING : negative HOMO - LUMO gap : -0.189350
    0     dE    -1.281827e-01     6.359467e-01    -2.5167e-01      0.137 (TRAH MIcro)
    0     dE    -1.496545e-01     1.623838e-01    -2.8917e-01      0.187 (TRAH MIcro)
    0     dE    -1.505966e-01     1.322908e-01    -2.9087e-01      0.188 (TRAH MIcro)
    0     dE    -1.761539e-01     1.145601e+00    -3.3758e-01      0.400 (TRAH MIcro)
    0     dE    -1.956497e-01     2.567199e-01    -6.5739e-01      0.400 (TRAH MIcro)
    0     dE    -1.494942e-01     8.342816e-02    -1.0465e+00      0.172 (TRAH MIcro)
    0     dE    -1.492763e-01     1.998504e-02    -1.0477e+00      0.170 (TRAH MIcro)
    0     dE    -1.492926e-01     1.033343e-02    -1.0477e+00      0.170 (TRAH MIcro)
    0     dE    -1.493058e-01     1.307928e-03    -1.0477e+00      0.170 (TRAH MIcro)
WARNING: 4 diagonal Hessian elements are negative!
    1      -1298.237922652655     1.961497e-01                     0.480 (TRAH MAcro)   No
WARNING : negative HOMO - LUMO gap : -0.054238
    1     dE    -2.612448e-03     1.701786e-01    -5.2212e-03      0.027 (TRAH MIcro)
    1     dE    -3.926500e-03     1.583212e-01    -7.8314e-03      0.053 (TRAH MIcro)
    1     dE    -5.084378e-03     5.023869e-02    -1.0115e-02      0.073 (TRAH MIcro)
    1     dE    -5.187710e-03     2.823903e-02    -1.0317e-02      0.075 (TRAH MIcro)
    1     dE    -5.352055e-03     8.386683e-02    -1.0624e-02      0.087 (TRAH MIcro)
    1     dE    -6.653801e-03     1.219540e-01    -1.2515e-02      0.252 (TRAH MIcro)
    1     dE    -9.310214e-03     7.533334e-02    -1.6646e-02      0.480 (TRAH MIcro)
    1     dE    -9.771536e-03     1.572607e-02    -2.1177e-02      0.480 (TRAH MIcro)
    1     dE    -9.784954e-03     5.192701e-03    -2.1296e-02      0.480 (TRAH MIcro)
WARNING: 3 diagonal Hessian elements are negative!
    2      -1298.242279829123     2.088461e-01                     0.480 (TRAH MAcro)   No
WARNING : negative HOMO - LUMO gap : -0.066170
    2     dE    -1.863015e-03     3.832330e-01    -3.7248e-03      0.018 (TRAH MIcro)
    2     dE    -2.899361e-03     8.405349e-02    -5.7848e-03      0.049 (TRAH MIcro)
    2     dE    -3.206019e-03     4.451306e-02    -6.3878e-03      0.062 (TRAH MIcro)
    2     dE    -3.289429e-03     3.336108e-02    -6.5506e-03      0.066 (TRAH MIcro)
    2     dE    -3.335509e-03     2.030891e-02    -6.6376e-03      0.071 (TRAH MIcro)
    2     dE    -3.341280e-03     2.973610e-02    -6.6489e-03      0.071 (TRAH MIcro)
    2     dE    -3.313006e-03     4.980370e-02    -1.4609e-01      0.061 (TRAH MIcro)
    2     dE    -3.343058e-03     1.072284e-02    -1.4739e-01      0.061 (TRAH MIcro)
    2     dE    -3.405051e-03     1.184145e-02    -1.4760e-01      0.067 (TRAH MIcro)
    2     dE    -3.659467e-03     5.746922e-03    -1.4805e-01      0.088 (TRAH MIcro)
WARNING: 3 diagonal Hessian elements are negative!
    3      -1298.245826037025     2.377796e-02                     0.576 (TRAH MAcro)   No
WARNING : negative HOMO - LUMO gap : -0.063038
    3     dE    -4.332443e-05     1.790000e-01    -8.6646e-05      0.006 (TRAH MIcro)
    3     dE    -1.399861e-04     1.819507e-01    -2.7967e-04      0.033 (TRAH MIcro)
    3     dE    -5.979108e-04     3.052127e-01    -1.1778e-03      0.124 (TRAH MIcro)
    3     dE    -1.260392e-02     8.270051e-01    -5.8702e-02      0.576 (TRAH MIcro)
    3     dE    -1.805044e-02     2.368868e-01    -1.1694e-01      0.517 (TRAH MIcro)
    3     dE    -1.990013e-02     1.353360e-01    -1.2111e-01      0.536 (TRAH MIcro)
    3     dE    -2.107991e-02     2.649023e-02    -1.2311e-01      0.548 (TRAH MIcro)
    3     dE    -2.125578e-02     1.107341e-02    -1.2336e-01      0.550 (TRAH MIcro)
    3     dE    -2.122208e-02     1.092143e-02    -1.2346e-01      0.550 (TRAH MIcro)
    3     dE    -2.136885e-02     9.594347e-03    -1.2357e-01      0.552 (TRAH MIcro)
    3     dE    -2.144300e-02     3.723121e-03    -1.2361e-01      0.553 (TRAH MIcro)
    3     dE    -2.144710e-02     5.228927e-04    -1.2361e-01      0.553 (TRAH MIcro)
 ---------------------------------
          TRAH Step control 
 ---------------------------------
  predicted energy change = -0.021447
  actual energy  change   = 0.008772
  energy change ratio     = -0.408996
  old trust radius        = 0.576000
  new trust radius        = 0.403200
  reject step?            =  1
    4      -1298.245826037025     2.088461e-01                     0.403 (TRAH MAcro)  Yes
WARNING: 3 diagonal Hessian elements are negative!
    5      -1298.245826037025     2.377796e-02                     0.403 (TRAH MAcro)   No
WARNING : negative HOMO - LUMO gap : -0.063038
    5     dE    -3.524582e-05     1.780741e-01    -7.0490e-05      0.005 (TRAH MIcro)
    5     dE    -1.125249e-04     1.721275e-01    -2.2490e-04      0.026 (TRAH MIcro)
    5     dE    -4.625764e-04     2.587352e-01    -9.1611e-04      0.099 (TRAH MIcro)
    5     dE    -3.886311e-03     8.014591e-01    -3.1995e-02      0.358 (TRAH MIcro)
    5     dE    -9.699862e-03     2.567161e-01    -9.5017e-02      0.403 (TRAH MIcro)
    5     dE    -1.202915e-02     9.693921e-02    -1.2457e-01      0.403 (TRAH MIcro)
    5     dE    -1.214106e-02     2.092631e-02    -1.2937e-01      0.398 (TRAH MIcro)
    5     dE    -1.223641e-02     8.512759e-03    -1.2964e-01      0.400 (TRAH MIcro)
    5     dE    -1.221372e-02     7.323193e-03    -1.2972e-01      0.399 (TRAH MIcro)
    5     dE    -1.228581e-02     7.135798e-03    -1.2982e-01      0.400 (TRAH MIcro)
    5     dE    -1.232388e-02     2.648984e-03    -1.2986e-01      0.401 (TRAH MIcro)
    5     dE    -1.232611e-02     3.810072e-04    -1.2986e-01      0.401 (TRAH MIcro)
WARNING: 4 diagonal Hessian elements are negative!
    6      -1298.248551992828     3.757904e-01                     0.282 (TRAH MAcro)   No
WARNING : negative HOMO - LUMO gap : -0.032584
    6     dE    -5.069417e-03     3.214407e-01    -1.0131e-02      0.028 (TRAH MIcro)
    6     dE    -6.257572e-03     3.107618e-01    -1.2439e-02      0.078 (TRAH MIcro)
    6     dE    -6.869795e-03     2.814719e-01    -1.3598e-02      0.102 (TRAH MIcro)
    6     dE    -7.449958e-03     2.207608e-01    -1.4666e-02      0.126 (TRAH MIcro)
    6     dE    -8.015168e-03     1.353902e-01    -1.5649e-02      0.156 (TRAH MIcro)
    6     dE    -8.551472e-03     2.748822e-02    -1.6411e-02      0.205 (TRAH MIcro)
    6     dE    -8.602412e-03     1.141611e-02    -1.6494e-02      0.208 (TRAH MIcro)
    6     dE    -8.619913e-03     9.571727e-03    -1.6539e-02      0.206 (TRAH MIcro)
WARNING: 3 diagonal Hessian elements are negative!
    7      -1298.257445989436     4.065002e-02                     0.339 (TRAH MAcro)   No
WARNING : negative HOMO - LUMO gap : -0.038803
    7     dE    -3.463552e-05     1.763465e-01    -6.9270e-05      0.003 (TRAH MIcro)
    7     dE    -9.777354e-05     1.621935e-01    -1.9551e-04      0.014 (TRAH MIcro)
    7     dE    -1.495761e-04     1.492265e-01    -2.9904e-04      0.020 (TRAH MIcro)
    7     dE    -2.200486e-04     8.464407e-02    -4.3976e-04      0.028 (TRAH MIcro)
    7     dE    -2.591834e-04     8.138684e-02    -5.1784e-04      0.032 (TRAH MIcro)
    7     dE    -3.120229e-04     7.706286e-02    -6.2310e-04      0.039 (TRAH MIcro)
    7     dE    -4.614564e-04     4.755103e-02    -9.1709e-04      0.080 (TRAH MIcro)
    7     dE    -5.153769e-04     2.424220e-02    -1.0218e-03      0.094 (TRAH MIcro)
    7     dE    -5.337503e-04     2.439613e-02    -1.0571e-03      0.099 (TRAH MIcro)
    7     dE    -5.840373e-04     3.148564e-02    -1.1522e-03      0.117 (TRAH MIcro)
    7     dE    -8.602127e-04     5.394749e-02    -1.6232e-03      0.245 (TRAH MIcro)
    7     dE    -1.156210e-03     9.720758e-03    -3.6772e-03      0.339 (TRAH MIcro)
    7     dE    -1.162275e-03     3.054975e-03    -3.7997e-03      0.339 (TRAH MIcro)
WARNING: 3 diagonal Hessian elements are negative!
    8      -1298.258384070765     9.299912e-02                     0.406 (TRAH MAcro)   No
WARNING : negative HOMO - LUMO gap : -0.038449
    8     dE    -2.968925e-04     1.273241e-01    -5.9376e-04      0.007 (TRAH MIcro)
    8     dE    -3.667149e-04     6.076997e-02    -7.3328e-04      0.014 (TRAH MIcro)
    8     dE    -4.051338e-04     4.493882e-02    -8.0986e-04      0.022 (TRAH MIcro)
    8     dE    -4.229245e-04     4.236823e-02    -8.4526e-04      0.026 (TRAH MIcro)
    8     dE    -4.396434e-04     3.988666e-02    -8.7875e-04      0.025 (TRAH MIcro)
    8     dE    -4.568491e-04     3.730087e-02    -9.1303e-04      0.027 (TRAH MIcro)
    8     dE    -5.238003e-04     2.231150e-02    -1.0440e-03      0.058 (TRAH MIcro)
    8     dE    -5.513569e-04     2.504016e-02    -1.0976e-03      0.068 (TRAH MIcro)
    8     dE    -5.666811e-04     2.735060e-02    -1.1269e-03      0.076 (TRAH MIcro)
    8     dE    -6.061249e-04     2.699727e-02    -1.2006e-03      0.098 (TRAH MIcro)
    8     dE    -6.613965e-04     2.478866e-02    -1.3009e-03      0.130 (TRAH MIcro)
    8     dE    -7.011967e-04     4.080550e-03    -1.3687e-03      0.157 (TRAH MIcro)
WARNING: 3 diagonal Hessian elements are negative!
    9      -1298.259222161978     2.096547e-02                     0.488 (TRAH MAcro)   No
WARNING : negative HOMO - LUMO gap : -0.037524
    9     dE    -9.808462e-06     7.803081e-02    -1.9617e-05      0.001 (TRAH MIcro)
    9     dE    -1.431857e-05     5.635069e-02    -2.8636e-05      0.006 (TRAH MIcro)
    9     dE    -2.117234e-05     1.608867e-02    -4.2343e-05      0.005 (TRAH MIcro)
    9     dE    -2.858671e-05     1.704859e-02    -5.7166e-05      0.011 (TRAH MIcro)
    9     dE    -3.696919e-05     1.615750e-02    -7.3929e-05      0.011 (TRAH MIcro)
    9     dE    -4.262215e-05     2.419827e-02    -8.5231e-05      0.012 (TRAH MIcro)
    9     dE    -1.035518e-04     2.421790e-02    -2.0639e-04      0.059 (TRAH MIcro)
    9     dE    -1.862899e-04     3.969978e-02    -3.6743e-04      0.118 (TRAH MIcro)
    9     dE    -2.991754e-04     6.777789e-02    -5.7550e-04      0.199 (TRAH MIcro)
    9     dE    -3.297087e-04     6.000618e-02    -6.2903e-04      0.220 (TRAH MIcro)
    9     dE    -4.473046e-04     5.564332e-02    -8.2210e-04      0.297 (TRAH MIcro)
    9     dE    -5.385627e-04     1.168461e-02    -9.5758e-04      0.353 (TRAH MIcro)
    9     dE    -5.436041e-04     1.243172e-03    -9.6469e-04      0.356 (TRAH MIcro)
 ---------------------------------
          TRAH Step control 
 ---------------------------------
  predicted energy change = -0.000544
  actual energy  change   = 0.000088
  energy change ratio     = -0.162389
  old trust radius        = 0.487711
  new trust radius        = 0.341398
  reject step?            =  1
   10      -1298.259222161978     9.299912e-02                     0.341 (TRAH MAcro)  Yes
WARNING: 3 diagonal Hessian elements are negative!
   11      -1298.259222161978     2.096547e-02                     0.341 (TRAH MAcro)   No
WARNING : negative HOMO - LUMO gap : -0.037524
   11     dE    -1.036319e-05     7.675056e-02    -2.0726e-05      0.001 (TRAH MIcro)
   11     dE    -1.446955e-05     5.756044e-02    -2.8938e-05      0.006 (TRAH MIcro)
   11     dE    -2.149523e-05     1.675162e-02    -4.2989e-05      0.005 (TRAH MIcro)
   11     dE    -2.882172e-05     1.796771e-02    -5.7636e-05      0.012 (TRAH MIcro)
   11     dE    -3.718464e-05     1.643641e-02    -7.4359e-05      0.012 (TRAH MIcro)
   11     dE    -4.288698e-05     2.431330e-02    -8.5761e-05      0.012 (TRAH MIcro)
   11     dE    -1.055925e-04     2.557052e-02    -2.1041e-04      0.061 (TRAH MIcro)
   11     dE    -1.901939e-04     4.397935e-02    -3.7487e-04      0.121 (TRAH MIcro)
   11     dE    -3.074513e-04     6.622669e-02    -5.9009e-04      0.205 (TRAH MIcro)
   11     dE    -3.370426e-04     5.704890e-02    -6.4164e-04      0.225 (TRAH MIcro)
   11     dE    -4.459426e-04     5.849617e-02    -8.1998e-04      0.296 (TRAH MIcro)
   11     dE    -5.337625e-04     1.163933e-02    -1.2042e-03      0.341 (TRAH MIcro)
   11     dE    -5.377916e-04     1.253587e-03    -1.2789e-03      0.341 (TRAH MIcro)
WARNING: 3 diagonal Hessian elements are negative!
   12      -1298.259238901369     1.150722e-01                     0.239 (TRAH MAcro)   No
WARNING : negative HOMO - LUMO gap : -0.038390
   12     dE    -4.678480e-04     1.538662e-01    -9.3562e-04      0.009 (TRAH MIcro)
   12     dE    -5.711789e-04     7.515137e-02    -1.1420e-03      0.018 (TRAH MIcro)
   12     dE    -6.106004e-04     6.126435e-02    -1.2204e-03      0.025 (TRAH MIcro)
   12     dE    -6.300014e-04     5.280293e-02    -1.2591e-03      0.026 (TRAH MIcro)
   12     dE    -6.500286e-04     4.396424e-02    -1.2992e-03      0.025 (TRAH MIcro)
   12     dE    -6.686158e-04     3.592961e-02    -1.3358e-03      0.033 (TRAH MIcro)
   12     dE    -6.976291e-04     1.769652e-02    -1.3921e-03      0.048 (TRAH MIcro)
   12     dE    -7.123508e-04     7.368536e-03    -1.4211e-03      0.051 (TRAH MIcro)
WARNING: 3 diagonal Hessian elements are negative!
   13      -1298.259940126165     8.388704e-03                     0.287 (TRAH MAcro)   No
WARNING : negative HOMO - LUMO gap : -0.036677
   13     dE    -2.590482e-07     1.642632e-02    -5.1810e-07      0.000 (TRAH MIcro)
   13     dE    -7.866895e-07     1.597262e-02    -1.5734e-06      0.002 (TRAH MIcro)
   13     dE    -4.146157e-06     8.369007e-03    -8.2915e-06      0.010 (TRAH MIcro)
   13     dE    -7.416074e-06     9.336748e-03    -1.4831e-05      0.009 (TRAH MIcro)
   13     dE    -8.663642e-06     3.393243e-03    -1.7326e-05      0.007 (TRAH MIcro)
   13     dE    -9.980771e-06     5.581377e-03    -1.9960e-05      0.008 (TRAH MIcro)
   13     dE    -1.591493e-05     9.485985e-03    -3.1824e-05      0.014 (TRAH MIcro)
   13     dE    -2.619715e-05     1.394320e-02    -5.2358e-05      0.026 (TRAH MIcro)
   13     dE    -6.164983e-05     3.962971e-02    -1.2262e-04      0.074 (TRAH MIcro)
   13     dE    -1.281808e-04     4.804124e-02    -2.4970e-04      0.163 (TRAH MIcro)
   13     dE    -1.747040e-04     4.938855e-02    -3.3294e-04      0.222 (TRAH MIcro)
   13     dE    -2.656085e-04     9.928924e-03    -1.3788e-03      0.287 (TRAH MIcro)
   13     dE    -2.701835e-04     2.512264e-03    -1.4964e-03      0.287 (TRAH MIcro)
   13     dE    -2.708897e-04     2.313331e-03    -1.5144e-03      0.287 (TRAH MIcro)
 ---------------------------------
          TRAH Step control 
 ---------------------------------
  predicted energy change = -0.000271
  actual energy  change   = 0.000117
  energy change ratio     = -0.430382
  old trust radius        = 0.286774
  new trust radius        = 0.200742
  reject step?            =  1
   14      -1298.259940126165     1.150722e-01                     0.201 (TRAH MAcro)  Yes
WARNING: 3 diagonal Hessian elements are negative!
   15      -1298.259940126165     8.388704e-03                     0.201 (TRAH MAcro)   No
WARNING : negative HOMO - LUMO gap : -0.036677
   15     dE    -2.466531e-07     1.591967e-02    -4.9331e-07      0.000 (TRAH MIcro)
   15     dE    -7.747666e-07     1.548098e-02    -1.5495e-06      0.002 (TRAH MIcro)
   15     dE    -4.120690e-06     8.303511e-03    -8.2406e-06      0.010 (TRAH MIcro)
   15     dE    -7.348725e-06     9.073206e-03    -1.4696e-05      0.009 (TRAH MIcro)
   15     dE    -8.647968e-06     3.343645e-03    -1.7295e-05      0.007 (TRAH MIcro)
   15     dE    -9.974599e-06     5.987713e-03    -1.9948e-05      0.008 (TRAH MIcro)
   15     dE    -1.594171e-05     9.606353e-03    -3.1877e-05      0.014 (TRAH MIcro)
   15     dE    -2.622757e-05     1.394286e-02    -5.2419e-05      0.026 (TRAH MIcro)
   15     dE    -6.100644e-05     3.936742e-02    -1.2136e-04      0.073 (TRAH MIcro)
   15     dE    -1.252063e-04     5.064954e-02    -2.4420e-04      0.159 (TRAH MIcro)
   15     dE    -1.713788e-04     4.129028e-02    -1.0208e-03      0.201 (TRAH MIcro)
   15     dE    -2.183259e-04     6.495777e-03    -3.5011e-03      0.200 (TRAH MIcro)
   15     dE    -2.205830e-04     1.712525e-03    -3.5974e-03      0.201 (TRAH MIcro)
   15     dE    -2.209363e-04     1.718852e-03    -3.6159e-03      0.201 (TRAH MIcro)
WARNING: 3 diagonal Hessian elements are negative!
   16      -1298.260059609326     4.194850e-02                     0.201 (TRAH MAcro)   No
WARNING : negative HOMO - LUMO gap : -0.036893
   16     dE    -6.128328e-05     4.740384e-02    -1.2257e-04      0.003 (TRAH MIcro)
   16     dE    -7.288694e-05     2.456403e-02    -1.4577e-04      0.006 (TRAH MIcro)
   16     dE    -7.717661e-05     2.006764e-02    -1.5435e-04      0.006 (TRAH MIcro)
   16     dE    -7.926449e-05     1.774717e-02    -1.5852e-04      0.006 (TRAH MIcro)
   16     dE    -8.093079e-05     1.684530e-02    -1.6185e-04      0.007 (TRAH MIcro)
   16     dE    -8.314237e-05     1.536470e-02    -1.6627e-04      0.009 (TRAH MIcro)
   16     dE    -8.738684e-05     7.919871e-03    -1.7474e-04      0.014 (TRAH MIcro)
   16     dE    -9.000779e-05     3.432329e-03    -1.7996e-04      0.017 (TRAH MIcro)
WARNING: 3 diagonal Hessian elements are negative!
   17      -1298.260149456188     3.482173e-03                     0.241 (TRAH MAcro)   No
WARNING : negative HOMO - LUMO gap : -0.036611
   17     dE    -3.003969e-08     6.112871e-03    -6.0081e-08      0.000 (TRAH MIcro)
   17     dE    -6.766508e-07     1.726408e-03    -1.3533e-06      0.002 (TRAH MIcro)
   17     dE    -7.622742e-07     1.460682e-03    -1.5245e-06      0.002 (TRAH MIcro)
   17     dE    -9.329147e-07     2.349924e-03    -1.8658e-06      0.001 (TRAH MIcro)
   17     dE    -1.129970e-06     2.107611e-03    -2.2599e-06      0.002 (TRAH MIcro)
   17     dE    -1.738608e-06     5.309648e-03    -3.4772e-06      0.004 (TRAH MIcro)
   17     dE    -3.173971e-06     7.342423e-03    -6.3475e-06      0.008 (TRAH MIcro)
   17     dE    -6.434491e-06     1.096228e-02    -1.2864e-05      0.019 (TRAH MIcro)
   17     dE    -1.405117e-05     1.774142e-02    -2.8047e-05      0.045 (TRAH MIcro)
   17     dE    -2.299023e-05     1.698223e-02    -4.5723e-05      0.075 (TRAH MIcro)
   17     dE    -2.718255e-05     1.754717e-02    -5.3937e-05      0.089 (TRAH MIcro)
   17     dE    -3.850340e-05     5.828920e-03    -7.5769e-05      0.128 (TRAH MIcro)
   17     dE    -4.073243e-05     2.495885e-03    -7.9997e-05      0.135 (TRAH MIcro)
   17     dE    -4.153307e-05     3.887373e-03    -8.1510e-05      0.138 (TRAH MIcro)
WARNING: 3 diagonal Hessian elements are negative!
   18      -1298.260168694370     2.008920e-02                     0.241 (TRAH MAcro)   No
WARNING : negative HOMO - LUMO gap : -0.036688
   18     dE    -8.057150e-06     8.072059e-02    -1.6114e-05      0.001 (TRAH MIcro)
   18     dE    -1.532663e-05     2.559991e-02    -3.0653e-05      0.004 (TRAH MIcro)
   18     dE    -1.645630e-05     1.787832e-02    -3.2912e-05      0.005 (TRAH MIcro)
   18     dE    -1.819183e-05     1.089968e-02    -3.6382e-05      0.007 (TRAH MIcro)
   18     dE    -1.898615e-05     7.144622e-03    -3.7971e-05      0.006 (TRAH MIcro)
   18     dE    -1.946930e-05     7.720773e-03    -3.8937e-05      0.006 (TRAH MIcro)
   18     dE    -1.982728e-05     6.566989e-03    -3.9653e-05      0.006 (TRAH MIcro)
   18     dE    -2.051486e-05     2.570441e-03    -4.1027e-05      0.009 (TRAH MIcro)
   18     dE    -2.081244e-05     1.554485e-03    -4.1622e-05      0.009 (TRAH MIcro)
WARNING: 3 diagonal Hessian elements are negative!
   19      -1298.260189474768     1.551024e-03                     0.289 (TRAH MAcro)   No
WARNING : negative HOMO - LUMO gap : -0.036603
   19     dE    -8.829432e-09     3.531000e-03    -1.8065e-08      0.000 (TRAH MIcro)
   19     dE    -3.675391e-08     3.132419e-03    -7.3508e-08      0.000 (TRAH MIcro)
   19     dE    -1.298725e-07     1.521903e-03    -2.5974e-07      0.001 (TRAH MIcro)
   19     dE    -1.780268e-07     7.752414e-04    -3.5605e-07      0.001 (TRAH MIcro)
   19     dE    -2.038262e-07     5.119117e-04    -4.0765e-07      0.001 (TRAH MIcro)
   19     dE    -2.273365e-07     1.163260e-03    -4.5467e-07      0.001 (TRAH MIcro)
   19     dE    -3.091994e-07     1.462860e-03    -6.1840e-07      0.001 (TRAH MIcro)
   19     dE    -4.070534e-07     1.941841e-03    -8.1410e-07      0.002 (TRAH MIcro)
   19     dE    -5.914537e-07     1.808977e-03    -1.1829e-06      0.004 (TRAH MIcro)
   19     dE    -7.263239e-07     5.429132e-04    -1.4526e-06      0.006 (TRAH MIcro)
   19     dE    -7.290879e-07     4.052359e-04    -1.4581e-06      0.006 (TRAH MIcro)
   19     dE    -7.328029e-07     1.970843e-04    -1.4656e-06      0.006 (TRAH MIcro)
   19     dE    -7.349457e-07     7.402474e-05    -1.4698e-06      0.006 (TRAH MIcro)
WARNING: 3 diagonal Hessian elements are negative!
   20      -1298.260190212826     9.069739e-05                           (NR   MAcro)
WARNING : negative HOMO - LUMO gap : -0.036631
   20     dE    -7.750036e-11     7.435550e-05                           (NR   MIcro)
   20     dE    -9.998844e-11     6.803597e-05                           (NR   MIcro)
   20     dE    -1.968571e-10     2.676769e-05                           (NR   MIcro)
   20     dE    -2.191325e-10     1.482571e-05                           (NR   MIcro)
   20     dE    -2.323840e-10     1.094875e-05                           (NR   MIcro)
   20     dE    -2.536171e-10     2.099318e-05                           (NR   MIcro)
   20     dE    -3.032020e-10     4.274859e-05                           (NR   MIcro)
   20     dE    -4.415347e-10     7.041358e-05                           (NR   MIcro)
   20     dE    -8.459226e-10     3.520435e-05                           (NR   MIcro)
   20     dE    -9.754763e-10     3.187891e-05                           (NR   MIcro)
   20     dE    -1.702792e-09     1.017465e-04                           (NR   MIcro)
   20     dE    -2.627682e-09     2.410838e-05                           (NR   MIcro)
   20     dE    -2.668550e-09     7.013678e-06                           (NR   MIcro)
   20     dE    -2.689600e-09     1.577767e-05                           (NR   MIcro)
   20     dE    -2.778437e-09     1.992631e-05                           (NR   MIcro)
WARNING: 3 diagonal Hessian elements are negative!
   21      -1298.260190215096     2.073030e-05                           (NR   MAcro)
WARNING : negative HOMO - LUMO gap : -0.036631
   21     dE    -1.419412e-11     1.524663e-05                           (NR   MIcro)
   21     dE    -1.712148e-11     1.259559e-05                           (NR   MIcro)
   21     dE    -2.338707e-11     9.218115e-06                           (NR   MIcro)
   21     dE    -2.925633e-11     5.542606e-06                           (NR   MIcro)
   21     dE    -3.571358e-11     7.337158e-06                           (NR   MIcro)
   21     dE    -5.120888e-11     1.996466e-05                           (NR   MIcro)
   21     dE    -7.807971e-11     1.928063e-05                           (NR   MIcro)
   21     dE    -1.053063e-10     8.573316e-06                           (NR   MIcro)
   21     dE    -1.097625e-10     3.325302e-06                           (NR   MIcro)
   21     dE    -1.108931e-10     1.498800e-06                           (NR   MIcro)
   21     dE    -1.135539e-10     5.800739e-06                           (NR   MIcro)
   21     dE    -1.483317e-10     1.850184e-05                           (NR   MIcro)
   21     dE    -1.773814e-10     5.124866e-06                           (NR   MIcro)
   21     dE    -1.782310e-10     1.051615e-06                           (NR   MIcro)
   21     dE    -1.783208e-10     7.873714e-07                           (NR   MIcro)
WARNING: 3 diagonal Hessian elements are negative!
   22      -1298.260190215235     1.092395e-06                           (NR   MAcro)
WARNING : negative HOMO - LUMO gap : -0.036631

               *****************************************************
               *                     SUCCESS                       *
               *           SCF CONVERGED AFTER 263 CYCLES          *
               *****************************************************


----------------
TOTAL SCF ENERGY
----------------

Total Energy       :        -1298.26019022 Eh          -35327.45579 eV

Components:
Nuclear Repulsion  :          136.67084304 Eh            3719.00271 eV
Electronic Energy  :        -1434.93103326 Eh          -39046.45850 eV
One Electron Energy:        -2065.54395415 Eh          -56206.30847 eV
Two Electron Energy:          630.61292089 Eh           17159.84997 eV
CPCM Dielectric    :           -0.01175861 Eh              -0.31997 eV

Virial components:
Potential Energy   :        -2595.55370377 Eh          -70628.60697 eV
Kinetic Energy     :         1297.29351355 Eh           35301.15118 eV
Virial Ratio       :            2.00074515


DFT components:
N(Alpha)           :       20.999924468920 electrons
N(Beta)            :       20.999924468920 electrons
N(Total)           :       41.999848937841 electrons
E(X)               :      -62.643482277799 Eh       
E(C)               :       -3.290601104862 Eh       
E(XC)              :      -65.934083382660 Eh       
DFET-embed. en.    :        0.000000000000 Eh       
CPCM Solvation Model Properties:
Surface-charge          :           -0.00850499
Charge-correction       :            0.00005550 Eh               0.00151 eV
Free-energy (cav+disp)  :  This term is not implemented in the current solvation scheme

---------------
SCF CONVERGENCE
---------------

  Last Energy change         ...   -1.3847e-10  Tolerance :   1.0000e-08
  Last Orbital Gradient      ...    1.0924e-06  Tolerance :   1.0000e-05
  Last Orbital Rotation      ...    2.2978e-04

             **** THE GBW FILE WAS UPDATED (MnOOH_Solv_COMPLETE.gbw) ****
             **** DENSITY MnOOH_Solv_COMPLETE.scfp WAS UPDATED ****
             **** ENERGY FILE WAS UPDATED (MnOOH_Solv_COMPLETE.en.tmp) ****
             **** THE GBW FILE WAS UPDATED (MnOOH_Solv_COMPLETE.gbw) ****
             **** DENSITY MnOOH_Solv_COMPLETE.scfp WAS UPDATED ****
----------------
ORBITAL ENERGIES
----------------

  NO   OCC          E(Eh)            E(eV) 
   0   2.0000    -233.648943     -6357.9110 
   1   2.0000     -26.846455      -730.5292 
   2   2.0000     -23.076699      -627.9489 
   3   2.0000     -23.059008      -627.4675 
   4   2.0000     -23.038899      -626.9203 
   5   2.0000     -18.641066      -507.2492 
   6   2.0000     -18.620347      -506.6854 
   7   2.0000      -3.020553       -82.1934 
   8   2.0000      -1.972625       -53.6779 
   9   2.0000      -1.945162       -52.9305 
  10   2.0000      -1.891582       -51.4726 
  11   2.0000      -0.854722       -23.2582 
  12   2.0000      -0.799056       -21.7434 
  13   2.0000      -0.413177       -11.2431 
  14   2.0000      -0.341308        -9.2875 
  15   2.0000      -0.319063        -8.6821 
  16   2.0000      -0.300393        -8.1741 
  17   2.0000      -0.279824        -7.6144 
  18   2.0000      -0.275868        -7.5068 
  19   2.0000      -0.182825        -4.9749 
  20   2.0000      -0.169273        -4.6062 
  21   0.0000      -0.205904        -5.6029 
  22   0.0000      -0.181582        -4.9411 
  23   0.0000      -0.167941        -4.5699 
  24   0.0000      -0.019915        -0.5419 
  25   0.0000       0.056200         1.5293 
  26   0.0000       0.056527         1.5382 
  27   0.0000       0.086169         2.3448 
  28   0.0000       0.119945         3.2639 
  29   0.0000       0.268570         7.3082 
  30   0.0000       0.560890        15.2626 
  31   0.0000       0.756783        20.5931 
  32   0.0000       0.769451        20.9378 
  33   0.0000       0.828445        22.5431 
  34   0.0000       0.835525        22.7358 
  35   0.0000       0.837754        22.7965 
  36   0.0000       0.904353        24.6087 
  37   0.0000       0.908139        24.7117 
  38   0.0000       0.942738        25.6532 
  39   0.0000       1.008699        27.4481 
  40   0.0000       1.042714        28.3737 
  41   0.0000       1.125401        30.6237 
  42   0.0000       1.277721        34.7685 
  43   0.0000       1.384965        37.6868 
  44   0.0000       1.397501        38.0279 
  45   0.0000       1.529279        41.6138 
  46   0.0000       2.088355        56.8270 
  47   0.0000       2.441937        66.4485 
  48   0.0000       2.501573        68.0713 
  49   0.0000       2.528710        68.8097 
  50   0.0000       2.528932        68.8157 
  51   0.0000       2.576743        70.1167 
  52   0.0000       2.662395        72.4474 
  53   0.0000       2.838228        77.2321 
  54   0.0000       2.845493        77.4298 
  55   0.0000       2.950397        80.2844 
  56   0.0000       3.289999        89.5254 
  57   0.0000       3.296368        89.6987 
  58   0.0000       3.312358        90.1338 
  59   0.0000       3.315355        90.2154 
  60   0.0000       3.354139        91.2708 
  61   0.0000       3.374650        91.8289 
  62   0.0000       3.544359        96.4469 
  63   0.0000       3.607130        98.1550 

                    ********************************
                    * MULLIKEN POPULATION ANALYSIS *
                    ********************************

-----------------------
MULLIKEN ATOMIC CHARGES
-----------------------
   0 Mn:    0.629835
   1 O :   -0.417737
   2 O :   -0.467719
   3 H :    0.255621
Sum of atomic charges:   -0.0000000

--------------------------------
MULLIKEN REDUCED ORBITAL CHARGES
--------------------------------
  0 Mns       :     6.654307  s :     6.654307
      pz      :     4.126572  p :    12.343307
      px      :     4.124687
      py      :     4.092048
      dz2     :     0.433119  d :     5.369084
      dxz     :     0.925708
      dyz     :     1.853542
      dx2y2   :     1.221590
      dxy     :     0.935125
      f0      :     0.000253  f :     0.003467
      f+1     :     0.000702
      f-1     :     0.000126
      f+2     :     0.000272
      f-2     :     0.000172
      f+3     :     0.000794
      f-3     :     0.001147
  1 O s       :     3.924113  s :     3.924113
      pz      :     1.430557  p :     4.487711
      px      :     1.573399
      py      :     1.483755
      dz2     :     0.000616  d :     0.005913
      dxz     :     0.001401
      dyz     :     0.000264
      dx2y2   :     0.001880
      dxy     :     0.001752
  2 O s       :     3.804179  s :     3.804179
      pz      :     1.646087  p :     4.657261
      px      :     1.690684
      py      :     1.320491
      dz2     :     0.001081  d :     0.006280
      dxz     :     0.000705
      dyz     :     0.000247
      dx2y2   :     0.003136
      dxy     :     0.001111
  3 H s       :     0.682468  s :     0.682468
      pz      :     0.014220  p :     0.061911
      px      :     0.016528
      py      :     0.031163


                     *******************************
                     * LOEWDIN POPULATION ANALYSIS *
                     *******************************

----------------------
LOEWDIN ATOMIC CHARGES
----------------------
   0 Mn:    0.416070
   1 O :   -0.255703
   2 O :   -0.274424
   3 H :    0.114056

-------------------------------
LOEWDIN REDUCED ORBITAL CHARGES
-------------------------------
  0 Mns       :     6.599034  s :     6.599034
      pz      :     4.133537  p :    12.485548
      px      :     4.245067
      py      :     4.106943
      dz2     :     0.439785  d :     5.493875
      dxz     :     0.941128
      dyz     :     1.855416
      dx2y2   :     1.283397
      dxy     :     0.974148
      f0      :     0.000360  f :     0.005474
      f+1     :     0.001220
      f-1     :     0.000201
      f+2     :     0.000380
      f-2     :     0.000241
      f+3     :     0.001179
      f-3     :     0.001894
  1 O s       :     3.751758  s :     3.751758
      pz      :     1.414996  p :     4.495683
      px      :     1.609206
      py      :     1.471482
      dz2     :     0.001151  d :     0.008261
      dxz     :     0.001462
      dyz     :     0.000306
      dx2y2   :     0.002946
      dxy     :     0.002396
  2 O s       :     3.569918  s :     3.569918
      pz      :     1.612487  p :     4.694748
      px      :     1.692417
      py      :     1.389844
      dz2     :     0.002062  d :     0.009758
      dxz     :     0.000643
      dyz     :     0.000076
      dx2y2   :     0.005902
      dxy     :     0.001075
  3 H s       :     0.708806  s :     0.708806
      pz      :     0.038969  p :     0.177138
      px      :     0.045190
      py      :     0.092979


                      *****************************
                      * MAYER POPULATION ANALYSIS *
                      *****************************

  NA   - Mulliken gross atomic population
  ZA   - Total nuclear charge
  QA   - Mulliken gross atomic charge
  VA   - Mayer's total valence
  BVA  - Mayer's bonded valence
  FA   - Mayer's free valence

  ATOM       NA         ZA         QA         VA         BVA        FA
  0 Mn    24.3702    25.0000     0.6298     3.3420     3.3420     0.0000
  1 O      8.4177     8.0000    -0.4177     2.3551     2.3551     0.0000
  2 O      8.4677     8.0000    -0.4677     2.2017     2.2017     0.0000
  3 H      0.7444     1.0000     0.2556     0.9532     0.9532     0.0000

  Mayer bond orders larger than 0.100000
B(  0-Mn,  1-O ) :   2.1827 B(  0-Mn,  2-O ) :   1.1253 B(  1-O ,  2-O ) :   0.1648 
B(  2-O ,  3-H ) :   0.9116 

-------
TIMINGS
-------

Total SCF time: 0 days 0 hours 0 min 50 sec 

Total time                  ....      50.093 sec
Sum of individual times     ....      38.600 sec  ( 77.1%)

Fock matrix formation       ....      13.060 sec  ( 26.1%)
  Split-RI-J                ....       4.885 sec  ( 37.4% of F)
  XC integration            ....       4.907 sec  ( 37.6% of F)
    Basis function eval.    ....       0.541 sec  ( 11.0% of XC)
    Density eval.           ....       0.565 sec  ( 11.5% of XC)
    XC-Functional eval.     ....       0.108 sec  (  2.2% of XC)
    XC-Potential eval.      ....       0.370 sec  (  7.5% of XC)
Diagonalization             ....       0.201 sec  (  0.4%)
Density matrix formation    ....       0.069 sec  (  0.1%)
Population analysis         ....       0.023 sec  (  0.0%)
Initial guess               ....       0.030 sec  (  0.1%)
Orbital Transformation      ....       0.749 sec  (  1.5%)
Orbital Orthonormalization  ....       0.000 sec  (  0.0%)
DIIS solution               ....       0.268 sec  (  0.5%)
SOSCF solution              ....       0.000 sec  (  0.0%)
Grid generation             ....       0.265 sec  (  0.5%)

Maximum memory used throughout the entire SCF-calculation: 9.5 MB

-------------------------   --------------------
FINAL SINGLE POINT ENERGY     -1298.260190215235
-------------------------   --------------------



           ************************************************************
           *        Program running with 5 parallel MPI-processes     *
           *              working on a common directory               *
           ************************************************************
------------------------------------------------------------------------------
                         ORCA SCF GRADIENT CALCULATION
------------------------------------------------------------------------------

Gradient of the Kohn-Sham DFT energy:
Kohn-Sham wavefunction type      ... RKS
Hartree-Fock exchange scaling    ...    0.000
Number of operators              ...    1
Number of atoms                  ...    4
Basis set dimensions             ...   64
Integral neglect threshold       ... 2.5e-11
Integral primitive cutoff        ... 2.5e-12
SHARK Integral package           ... ON

Nuc. rep. gradient       (SHARK) ... done (  0.0 sec)
HCore & Overlap gradient (SHARK) ... done (  0.0 sec)
RI-J gradient            (SHARK) ... done (  0.1 sec)
Exchange-correlation gradient    ... done

------------------
CARTESIAN GRADIENT
------------------

   1   Mn  :    0.044753347   -0.022910745   -0.000000009
   2   O   :   -0.109988036    0.041362933   -0.000000038
   3   O   :    0.069159186   -0.016381178   -0.000000144
   4   H   :   -0.003924498   -0.002071010    0.000000190

Difference to translation invariance:
           :   -0.0000000001   -0.0000000000    0.0000000000

Difference to rotation invariance:
           :   -0.0000004506   -0.0000002451   -0.0011659440

Norm of the cartesian gradient     ...    0.1463114880
RMS gradient                       ...    0.0422364885
MAX gradient                       ...    0.1099880360

-------
TIMINGS
-------

Total SCF gradient time            ...        0.446 sec

One electron gradient       ....       0.009 sec  (  2.0%)
RI-J Coulomb gradient       ....       0.146 sec  ( 32.7%)
XC gradient                 ....       0.090 sec  ( 20.2%)
CPCM gradient               ....       0.065 sec  ( 14.6%)
   A-Matrix (El+Nuc)        ....       0.007 sec  (  1.6%)
   Potential                ....       0.058 sec  ( 13.0%)

Maximum memory used throughout the entire SCFGRAD-calculation: 6.8 MB
------------------------------------------------------------------------------
                         ORCA GEOMETRY RELAXATION STEP
------------------------------------------------------------------------------

Reading the OPT-File                    .... done
Getting information on internals        .... done
Copying old internal coords+grads       .... done
Making the new internal coordinates     .... (new redundants).... done
Validating the new internal coordinates .... (new redundants).... done
Calculating the B-matrix                .... done
Calculating the G,G- and P matrices     .... done
Transforming gradient to internals      .... done
Projecting the internal gradient        .... done
Number of atoms                         ....   4
Number of internal coordinates          ....   6
Current Energy                          .... -1298.260190215 Eh
Current gradient norm                   ....     0.146311488 Eh/bohr
Maximum allowed component of the step   ....  0.300
Current trust radius                    ....  0.300
Evaluating the initial hessian          ....  (Almloef) done
Projecting the Hessian                  .... done
Forming the augmented Hessian           .... done
Diagonalizing the augmented Hessian     .... done
Last element of RFO vector              ....  0.993901616
Lowest eigenvalues of augmented Hessian:
 -0.014041442  0.424094566  0.465369906  0.691564153  0.691662319
Length of the computed step             ....  0.110947072
The final length of the internal step   ....  0.110947072
Converting the step to cartesian space:
 Initial RMS(Int)=    0.0452939525
Transforming coordinates:
 Iter   0:  RMS(Cart)=    0.0351923562 RMS(Int)=    0.0452722263
 Iter   1:  RMS(Cart)=    0.0001312643 RMS(Int)=    0.0001450540
 Iter   2:  RMS(Cart)=    0.0000027859 RMS(Int)=    0.0000032073
 Iter   3:  RMS(Cart)=    0.0000000559 RMS(Int)=    0.0000000671
done
Storing new coordinates                 .... done

                                .--------------------.
          ----------------------|Geometry convergence|-------------------------
          Item                value                   Tolerance       Converged
          ---------------------------------------------------------------------
          RMS gradient        0.0555480970            0.0005000000      NO
          MAX gradient        0.1174894872            0.0020000000      NO
          RMS step            0.0452939525            0.0070000000      NO
          MAX step            0.0845126128            0.0100000000      NO
          ........................................................
          Max(Bonds)      0.0447      Max(Angles)    0.90
          Max(Dihed)        0.00      Max(Improp)    0.00
          ---------------------------------------------------------------------

The optimization has not yet converged - more geometry cycles are needed


    ---------------------------------------------------------------------------
                         Redundant Internal Coordinates
                            (Angstroem and degrees)

        Definition                    Value    dE/dq     Step     New-Value
    ----------------------------------------------------------------------------
     1. B(O   1,Mn  0)                1.7190  0.117489 -0.0365    1.6825   
     2. B(O   2,Mn  0)                1.9272  0.067699 -0.0447    1.8824   
     3. B(H   3,O   2)                0.9902  0.002310 -0.0025    0.9876   
     4. L(O   1,Mn  0,O   2,H   3, 2) 180.00 -0.000000    0.00    180.00   
     5. L(O   1,Mn  0,O   2,H   3, 1) 180.01  0.008600   -0.70    179.31   
     6. A(Mn  0,O   2,H   3)          104.52 -0.006881    0.90    105.42   
    ----------------------------------------------------------------------------

         *************************************************************
         *                GEOMETRY OPTIMIZATION CYCLE   2            *
         *************************************************************
---------------------------------
CARTESIAN COORDINATES (ANGSTROEM)
---------------------------------
  Mn     2.135349    0.874602   -0.000000
  O      0.542239    1.415765    0.000000
  O      3.910334    0.247676    0.000000
  H      3.840799   -0.737521    0.000000

----------------------------
CARTESIAN COORDINATES (A.U.)
----------------------------
  NO LB      ZA    FRAG     MASS         X           Y           Z
   0 Mn   25.0000    0    54.940    4.035224    1.652759   -0.000000
   1 O     8.0000    0    15.999    1.024684    2.675407    0.000000
   2 O     8.0000    0    15.999    7.389461    0.468041    0.000000
   3 H     1.0000    0     1.008    7.258058   -1.393713    0.000000

--------------------------------
INTERNAL COORDINATES (ANGSTROEM)
--------------------------------
 Mn     0   0   0     0.000000000000     0.00000000     0.00000000
 O      1   0   0     1.682514166366     0.00000000     0.00000000
 O      1   2   0     1.882447979718   179.30883953     0.00000000
 H      3   1   2     0.987648355483   105.41599978     0.00000000

---------------------------
INTERNAL COORDINATES (A.U.)
---------------------------
 Mn     0   0   0     0.000000000000     0.00000000     0.00000000
 O      1   0   0     3.179490990875     0.00000000     0.00000000
 O      1   2   0     3.557311143020   179.30883953     0.00000000
 H      3   1   2     1.866384908480   105.41599978     0.00000000



           ************************************************************
           *        Program running with 5 parallel MPI-processes     *
           *              working on a common directory               *
           ************************************************************
------------------------------------------------------------------------------
                   ___                                                        
                  /   \      - P O W E R E D   B Y -                         
                 /     \                                                     
                 |  |  |   _    _      __       _____    __    __             
                 |  |  |  | |  | |    /  \     |  _  \  |  |  /  |          
                  \  \/   | |  | |   /    \    | | | |  |  | /  /          
                 / \  \   | |__| |  /  /\  \   | |_| |  |  |/  /          
                |  |  |   |  __  | /  /__\  \  |    /   |      \           
                |  |  |   | |  | | |   __   |  |    \   |  |\   \          
                \     /   | |  | | |  |  |  |  | |\  \  |  | \   \       
                 \___/    |_|  |_| |__|  |__|  |_| \__\ |__|  \__/        
                                                                              
                      - O R C A' S   B I G   F R I E N D -                    
                                      &                                       
                       - I N T E G R A L  F E E D E R -                       
                                                                              
 v1 FN, 2020, v2 2021                                                         
------------------------------------------------------------------------------


Reading SHARK input file MnOOH_Solv_COMPLETE.SHARKINP.tmp ... ok
----------------------
SHARK INTEGRAL PACKAGE
----------------------

Number of atoms                             ...      4
Number of basis functions                   ...     64
Number of shells                            ...     26
Maximum angular momentum                    ...      3
Integral batch strategy                     ... SHARK/LIBINT Hybrid
RI-J (if used) integral strategy            ... SPLIT-RIJ (Revised 2003 algorithm where possible)
Printlevel                                  ...      1
Contraction scheme used                     ... SEGMENTED contraction
Coulomb Range Separation                    ... NOT USED
Exchange Range Separation                   ... NOT USED
Finite Nucleus Model                        ... NOT USED
Auxiliary Coulomb fitting basis             ... AVAILABLE
   # of basis functions in Aux-J            ...    198
   # of shells in Aux-J                     ...     58
   Maximum angular momentum in Aux-J        ...      4
Auxiliary J/K fitting basis                 ... NOT available
Auxiliary Correlation fitting basis         ... NOT available
Auxiliary 'external' fitting basis          ... NOT available
Integral threshold                          ...     2.500000e-11
Primitive cut-off                           ...     2.500000e-12
Primitive pair pre-selection threshold      ...     2.500000e-12

Calculating pre-screening integrals         ... done (  0.0 sec) Dimension = 26
Organizing shell pair data                  ... done (  0.0 sec)
Shell pair information
Total number of shell pairs                 ...       351
Shell pairs after pre-screening             ...       337
Total number of primitive shell pairs       ...      1780
Primitive shell pairs kept                  ...      1377
          la=0 lb=0:     84 shell pairs
          la=1 lb=0:     99 shell pairs
          la=1 lb=1:     36 shell pairs
          la=2 lb=0:     50 shell pairs
          la=2 lb=1:     32 shell pairs
          la=2 lb=2:     10 shell pairs
          la=3 lb=0:     13 shell pairs
          la=3 lb=1:      8 shell pairs
          la=3 lb=2:      4 shell pairs
          la=3 lb=3:      1 shell pairs

Calculating one electron integrals          ... done (  0.0 sec)
Calculating RI/J V-Matrix + Cholesky decomp.... done (  0.0 sec)
Calculating Nuclear repulsion               ... done (  0.0 sec) ENN=    139.623879665329 Eh

SHARK setup successfully completed in   0.2 seconds

Maximum memory used throughout the entire GTOINT-calculation: 14.1 MB


           ************************************************************
           *        Program running with 5 parallel MPI-processes     *
           *              working on a common directory               *
[...]
Grid generation             ....       0.219 sec  (  6.5%)

Maximum memory used throughout the entire SCF-calculation: 9.5 MB

-------------------------   --------------------
FINAL SINGLE POINT ENERGY     -1298.331230694785
-------------------------   --------------------

                                *** OPTIMIZATION RUN DONE ***

                            ***************************************
                            *     ORCA property calculations      *
                            ***************************************

                                    ---------------------
                                    Active property flags
                                    ---------------------
   (+) Dipole Moment
   (+) Polarizability


------------------------------------------------------------------------------
                       ORCA ELECTRIC PROPERTIES CALCULATION
------------------------------------------------------------------------------

Dipole Moment Calculation                       ... on
Quadrupole Moment Calculation                   ... off
Polarizability Calculation                      ... Analytic (CP-SCF)
GBWName                                         ... MnOOH_Solv_COMPLETE.gbw
Electron density                                ... MnOOH_Solv_COMPLETE.scfp
The origin for moment calculation is the CENTER OF MASS  = ( 3.666127,  0.862003 -0.018331)

-------------
DIPOLE MOMENT
-------------
                                X             Y             Z
Electronic contribution:     -2.64982      -1.11232       0.22185
Nuclear contribution   :      3.23522       0.33589      -0.00797
                        -----------------------------------------
Total Dipole Moment    :      0.58540      -0.77643       0.21388
                        -----------------------------------------
Magnitude (a.u.)       :      0.99563
Magnitude (Debye)      :      2.53070



--------------------
Rotational spectrum 
--------------------
 
Rotational constants in cm-1:     1.250083     0.254045     0.211546 
Rotational constants in MHz : 37476.546032  7616.081187  6342.003550 

 Dipole components along the rotational axes: 
x,y,z [a.u.] :    -0.948777    -0.149160     0.262405 
x,y,z [Debye]:    -2.411601    -0.379136     0.666980 

 
Transforming and storing MO dipole integrals   ... done

                ... starting polarizability calculation

The origin for moment calculation is the CENTER OF MASS  = ( 3.666127,  0.862003 -0.018331)
Opening the Dipole integral file               ... (MnOOH_Solv_COMPLETE.dmo.tmp) done
Reading Dipole-MO integrals                    ... done
Solving CP-SCF equations                       ... 

           ************************************************************
           *        Program running with 5 parallel MPI-processes     *
           *              working on a common directory               *
           ************************************************************

------------------------------------------------------------------------------
                           ORCA CP-SCF CALCULATION
------------------------------------------------------------------------------

Input orbitals are from        ... MnOOH_Solv_COMPLETE.gbw
Input Perturbation             ... MnOOH_Solv_COMPLETE.cpv.tmp
Wavefunction output            ... MnOOH_Solv_COMPLETE.cpu.tmp
Perturbation mode              ... Real perturbation (singlet)
Solver                         ... POPLE
Max. number of iterations      ... 64
Convergence tolerance          ... 1.000e-04
Integral handling              ... Direct
DFT GridXC                     ... 1
Number of perturbations        ... 3
Number of operators            ... 1
Orbital ranges used for CP-SCF:
 Operator 0:  Orbitals   0... 20  to  21... 63
Variables per perturbation     ... 903
DFT calculation                         ... on
XC functional terms                     ... on
Exchange functional (SCF)               ... Slater
Exchange functional (CP-SCF)            ... Slater
   X-Alpha parameter    XAlpha (SCF)    ...  0.666667
   X-Alpha parameter    XAlpha (CP-SCF) ...  0.666667
Correlation functional (SCF)            ... VWN-5
Correlation functional (CP-SCF)         ... VWN-5

CP-SCF GRID
-----------

General Integration Accuracy     IntAcc      ... 3.467
Radial Grid Type                 RadialGrid  ... OptM3 with GC (2021)
Angular Grid (max. ang.)         AngularGrid ... 1 (Lebedev-50)
Angular grid pruning method      GridPruning ... 4 (adaptive)
Weight generation scheme         WeightScheme... Becke
Basis function cutoff            BFCut       ... 1.0000e-11
Integration weight cutoff        WCut        ... 1.0000e-14
Angular grids for H and He will be reduced by one unit
Partially contracted basis set               ... off
Rotationally invariant grid construction     ... off

Total number of grid points                  ...     6685
Total number of batches                      ...      107
Average number of points per batch           ...       62
Average number of grid points per atom       ...     1671

Recalculating density on grid  ... done
Calculating the xc-kernel      ... done
Memory available               ... 1020.2 MB
Memory needed per perturbation ...   0.3 MB
Perturbations treated per batch... 3
Number of batches              ... 1
     CP-SCF ITERATION   0:   1.5033e+02 (   0.1 sec   0/  3 done)
     CP-SCF ITERATION   1:   3.3104e+01 (   0.1 sec   0/  3 done)
     CP-SCF ITERATION   2:   4.0742e+01 (   0.1 sec   0/  3 done)
     CP-SCF ITERATION   3:   2.4325e+01 (   0.1 sec   0/  3 done)
     CP-SCF ITERATION   4:   4.0512e+01 (   0.1 sec   0/  3 done)
     CP-SCF ITERATION   5:   1.7285e+00 (   0.1 sec   0/  3 done)
     CP-SCF ITERATION   6:   5.4462e-01 (   0.1 sec   0/  3 done)
     CP-SCF ITERATION   7:   1.4924e-01 (   0.1 sec   0/  3 done)
     CP-SCF ITERATION   8:   3.3179e-02 (   0.1 sec   0/  3 done)
     CP-SCF ITERATION   9:   6.3592e-03 (   0.1 sec   0/  3 done)
     CP-SCF ITERATION  10:   1.0487e-03 (   0.1 sec   0/  3 done)
     CP-SCF ITERATION  11:   1.6359e-04 (   0.1 sec   1/  3 done)
     CP-SCF ITERATION  12:   4.4857e-05 (   0.1 sec   3/  3 done)
                    *** THE CP-SCF HAS CONVERGED ***
done
Reading CP-SCF coefficients                    ... done
Doing the polarizability tensor                ... done
Cleaning up                                    ... done

-------------------------
THE POLARIZABILITY TENSOR
-------------------------

The raw cartesian tensor (atomic units):
   51.41796     -5.50734      0.13467  
   -5.50734     45.85667      0.27275  
    0.13467      0.27275     35.78704  
diagonalized tensor: 
   35.77329     42.48151     54.80686  

   -0.02242      0.52362     -0.85166  
   -0.03927      0.85075      0.52410  
    0.99898      0.04520      0.00149  

Isotropic polarizability :  44.35389


----------------------------------------------------------------------------
                           ORCA NUMERICAL FREQUENCIES
                              (5-process run)
----------------------------------------------------------------------------

Number of atoms                ... 4
Central differences            ... used
Number of displacements        ... 24
Numerical increment            ... 5.000e-03 bohr
IR-spectrum generation         ... on
Raman-spectrum generation      ... on
Polarizability calculation     ... 1
Surface Crossing Hessian       ... off

The output will be reduced. Please look at the following files:
SCF program output             ... >MnOOH_Solv_COMPLETE.lastscf
Integral program output        ... >MnOOH_Solv_COMPLETE.lastint
Gradient program output        ... >MnOOH_Solv_COMPLETE.lastgrad
Dipole moment program output   ... >MnOOH_Solv_COMPLETE.lastmom
AutoCI program output          ... >MnOOH_Solv_COMPLETE.lastautoci

	<< Calculating on displaced geometry   1 (of  24) >>
	<< Calculating on displaced geometry   2 (of  24) >>
	<< Calculating on displaced geometry   3 (of  24) >>
	<< Calculating on displaced geometry   5 (of  24) >>
	<< Calculating on displaced geometry   4 (of  24) >>
	<< Calculating on displaced geometry   8 (of  24) >>
	<< Calculating on displaced geometry   6 (of  24) >>
	<< Calculating on displaced geometry   7 (of  24) >>
	<< Calculating on displaced geometry   9 (of  24) >>
	<< Calculating on displaced geometry  10 (of  24) >>
	<< Calculating on displaced geometry  11 (of  24) >>
	<< Calculating on displaced geometry  12 (of  24) >>
	<< Calculating on displaced geometry  13 (of  24) >>
	<< Calculating on displaced geometry  14 (of  24) >>
	<< Calculating on displaced geometry  15 (of  24) >>
	<< Calculating on displaced geometry  16 (of  24) >>
	<< Calculating on displaced geometry  17 (of  24) >>
	<< Calculating on displaced geometry  18 (of  24) >>
	<< Calculating on displaced geometry  19 (of  24) >>
	<< Calculating on displaced geometry  20 (of  24) >>
	<< Calculating on displaced geometry  21 (of  24) >>
	<< Calculating on displaced geometry  22 (of  24) >>
	<< Calculating on displaced geometry  23 (of  24) >>
	<< Calculating on displaced geometry  24 (of  24) >>

-----------------------
VIBRATIONAL FREQUENCIES
-----------------------

Scaling factor for frequencies =  1.000000000 (already applied!)

   0:         0.00 cm**-1
   1:         0.00 cm**-1
   2:         0.00 cm**-1
   3:         0.00 cm**-1
   4:         0.00 cm**-1
   5:         0.00 cm**-1
   6:       141.43 cm**-1
   7:       252.48 cm**-1
   8:       514.68 cm**-1
   9:       846.81 cm**-1
  10:      1078.64 cm**-1
  11:      3687.58 cm**-1


------------
NORMAL MODES
------------

These modes are the cartesian displacements weighted by the diagonal matrix
M(i,i)=1/sqrt(m[i]) where m[i] is the mass of the displaced atom
Thus, these vectors are normalized but *not* orthogonal

                  0          1          2          3          4          5    
      0       0.000000   0.000000   0.000000   0.000000   0.000000   0.000000
      1       0.000000   0.000000   0.000000   0.000000   0.000000   0.000000
      2       0.000000   0.000000   0.000000   0.000000   0.000000   0.000000
      3       0.000000   0.000000   0.000000   0.000000   0.000000   0.000000
      4       0.000000   0.000000   0.000000   0.000000   0.000000   0.000000
      5       0.000000   0.000000   0.000000   0.000000   0.000000   0.000000
      6       0.000000   0.000000   0.000000   0.000000   0.000000   0.000000
      7       0.000000   0.000000   0.000000   0.000000   0.000000   0.000000
      8       0.000000   0.000000   0.000000   0.000000   0.000000   0.000000
      9       0.000000   0.000000   0.000000   0.000000   0.000000   0.000000
     10       0.000000   0.000000   0.000000   0.000000   0.000000   0.000000
     11       0.000000   0.000000   0.000000   0.000000   0.000000   0.000000
                  6          7          8          9         10         11    
      0      -0.027687  -0.072804   0.006827   0.171028  -0.056731  -0.000041
      1      -0.020610  -0.060135   0.020533  -0.029974   0.277137   0.000317
      2       0.023098  -0.010548  -0.003555  -0.013212   0.003734  -0.000038
      3       0.087443   0.242098  -0.038243  -0.003693   0.179390   0.000289
      4      -0.002860  -0.001435   0.009267  -0.079704  -0.937884  -0.001359
      5      -0.035820   0.006738   0.015027   0.001038  -0.013811  -0.000004
      6       0.023407   0.007131   0.035975  -0.541857   0.014203  -0.058138
      7       0.065491   0.165866  -0.138336   0.155257  -0.009745  -0.019657
      8      -0.103085   0.071914  -0.004109   0.036312   0.004518  -0.013785
      9      -0.250373   0.012350  -0.336079  -0.662752   0.019350   0.920433
     10       0.129210   0.667721   0.929478   0.434544  -0.064284   0.316291
     11       0.945776  -0.673481   0.020459   0.127309  -0.056043   0.220917


-----------
IR SPECTRUM
-----------

 Mode   freq       eps      Int      T**2         TX        TY        TZ
       cm**-1   L/(mol*cm) km/mol    a.u.
----------------------------------------------------------------------------
  6:    141.43   0.043118  217.90  0.095139  (-0.144501 -0.000221  0.272505)
  7:    252.48   0.012028   60.78  0.014866  (-0.007652  0.061491 -0.105008)
  8:    514.68   0.040642  205.39  0.024642  (-0.063635  0.141957  0.020996)
  9:    846.81   0.022073  111.55  0.008134  ( 0.089363 -0.011819  0.002978)
 10:   1078.64   0.042863  216.61  0.012401  (-0.049384  0.099743  0.003670)
 11:   3687.58   0.115075  581.54  0.009738  ( 0.098140  0.001333  0.010253)

* The epsilon (eps) is given for a Dirac delta lineshape.
** The dipole moment derivative (T) already includes vibrational overlap.

--------------
RAMAN SPECTRUM  
--------------

 Mode    freq (cm**-1)   Activity   Depolarization
-------------------------------------------------------------------
   6:       141.43      8.396642      0.737893
   7:       252.48     14.981479      0.748717
   8:       514.68      5.038099      0.230845
   9:       846.81     18.903902      0.596328
  10:      1078.64     21.906043      0.737381
  11:      3687.58    412.962121      0.260315

The first frequency considered to be a vibration is 6
The total number of vibrations considered is 6


--------------------------
THERMOCHEMISTRY AT 298.15K
--------------------------

Temperature         ... 298.15 K
Pressure            ... 1.00 atm
Total Mass          ... 87.95 AMU

Throughout the following assumptions are being made:
  (1) The electronic state is orbitally nondegenerate
  (2) There are no thermally accessible electronically excited states
  (3) Hindered rotations indicated by low frequency modes are not
      treated as such but are treated as vibrations and this may
      cause some error
  (4) All equations used are the standard statistical mechanics
      equations for an ideal gas
  (5) All vibrations are strictly harmonic

freq.     141.43  E(vib)   ...       0.41 
freq.     252.48  E(vib)   ...       0.30 
freq.     514.68  E(vib)   ...       0.13 
freq.     846.81  E(vib)   ...       0.04 
freq.    1078.64  E(vib)   ...       0.02 
freq.    3687.58  E(vib)   ...       0.00 

------------
INNER ENERGY
------------

The inner energy is: U= E(el) + E(ZPE) + E(vib) + E(rot) + E(trans)
    E(el)   - is the total energy from the electronic structure calculation
              = E(kin-el) + E(nuc-el) + E(el-el) + E(nuc-nuc)
    E(ZPE)  - the the zero temperature vibrational energy from the frequency calculation
    E(vib)  - the the finite temperature correction to E(ZPE) due to population
              of excited vibrational states
    E(rot)  - is the rotational thermal energy
    E(trans)- is the translational thermal energy

Summary of contributions to the inner energy U:
Electronic energy                ...  -1298.33123070 Eh
Zero point energy                ...      0.01485734 Eh       9.32 kcal/mol
Thermal vibrational correction   ...      0.00144794 Eh       0.91 kcal/mol
Thermal rotational correction    ...      0.00141627 Eh       0.89 kcal/mol
Thermal translational correction ...      0.00141627 Eh       0.89 kcal/mol
-----------------------------------------------------------------------
Total thermal energy                  -1298.31209287 Eh


Summary of corrections to the electronic energy:
(perhaps to be used in another calculation)
Total thermal correction                  0.00428048 Eh       2.69 kcal/mol
Non-thermal (ZPE) correction              0.01485734 Eh       9.32 kcal/mol
-----------------------------------------------------------------------
Total correction                          0.01913783 Eh      12.01 kcal/mol


--------
ENTHALPY
--------

The enthalpy is H = U + kB*T
                kB is Boltzmann's constant
Total free energy                 ...  -1298.31209287 Eh 
Thermal Enthalpy correction       ...      0.00094421 Eh       0.59 kcal/mol
-----------------------------------------------------------------------
Total Enthalpy                    ...  -1298.31114867 Eh


Note: Only C1 symmetry has been detected, increase convergence thresholds 
      if your molecule has a higher symmetry. Symmetry factor of 1.0 is   
      used for the rotational entropy correction. 
 

Note: Rotational entropy computed according to Herzberg 
Infrared and Raman Spectra, Chapter V,1, Van Nostrand Reinhold, 1945 
Point Group:  C1, Symmetry Number:   1  
Rotational constants in cm-1:     1.250083     0.254045     0.211546 

Vibrational entropy computed according to the QRRHO of S. Grimme
Chem.Eur.J. 2012 18 9955


-------
ENTROPY
-------

The entropy contributions are T*S = T*(S(el)+S(vib)+S(rot)+S(trans))
     S(el)   - electronic entropy
     S(vib)  - vibrational entropy
     S(rot)  - rotational entropy
     S(trans)- translational entropy
The entropies will be listed as multiplied by the temperature to get
units of energy

Electronic entropy                ...      0.00000000 Eh      0.00 kcal/mol
Vibrational entropy               ...      0.00252400 Eh      1.58 kcal/mol
Rotational entropy                ...      0.01078562 Eh      6.77 kcal/mol
Translational entropy             ...      0.01868933 Eh     11.73 kcal/mol
-----------------------------------------------------------------------
Final entropy term                ...      0.03199894 Eh     20.08 kcal/mol

In case the symmetry of your molecule has not been determined correctly
or in case you have a reason to use a different symmetry number we print 
out the resulting rotational entropy values for sn=1,12 :
 --------------------------------------------------------
|  sn= 1 | S(rot)=       0.01078562 Eh      6.77 kcal/mol|
|  sn= 2 | S(rot)=       0.01013116 Eh      6.36 kcal/mol|
|  sn= 3 | S(rot)=       0.00974833 Eh      6.12 kcal/mol|
|  sn= 4 | S(rot)=       0.00947670 Eh      5.95 kcal/mol|
|  sn= 5 | S(rot)=       0.00926602 Eh      5.81 kcal/mol|
|  sn= 6 | S(rot)=       0.00909387 Eh      5.71 kcal/mol|
|  sn= 7 | S(rot)=       0.00894833 Eh      5.62 kcal/mol|
|  sn= 8 | S(rot)=       0.00882225 Eh      5.54 kcal/mol|
|  sn= 9 | S(rot)=       0.00871104 Eh      5.47 kcal/mol|
|  sn=10 | S(rot)=       0.00861156 Eh      5.40 kcal/mol|
|  sn=11 | S(rot)=       0.00852157 Eh      5.35 kcal/mol|
|  sn=12 | S(rot)=       0.00843942 Eh      5.30 kcal/mol|
 --------------------------------------------------------


-------------------
GIBBS FREE ENERGY
-------------------

The Gibbs free energy is G = H - T*S

Total enthalpy                    ...  -1298.31114867 Eh 
Total entropy correction          ...     -0.03199894 Eh    -20.08 kcal/mol
-----------------------------------------------------------------------
Final Gibbs free energy         ...  -1298.34314761 Eh

For completeness - the Gibbs free energy minus the electronic energy
G-E(el)                           ...     -0.01191691 Eh     -7.48 kcal/mol



Timings for individual modules:

Sum of individual times         ...      841.469 sec (=  14.024 min)
GTO integral calculation        ...      101.163 sec (=   1.686 min)  12.0 %
SCF iterations                  ...      336.649 sec (=   5.611 min)  40.0 %
Solution of CP-SCF eqns.        ...        4.985 sec (=   0.083 min)   0.6 %
SCF Gradient evaluation         ...      127.078 sec (=   2.118 min)  15.1 %
Geometry relaxation             ...        3.392 sec (=   0.057 min)   0.4 %
Numerical frequency calculation ...      268.202 sec (=   4.470 min)  31.9 %
                             ****ORCA TERMINATED NORMALLY****
TOTAL RUN TIME: 0 days 0 hours 14 minutes 20 seconds 170 msec
