
                                 *****************
                                 * O   R   C   A *
                                 *****************

                                            #,                                       
                                            ###                                      
                                            ####                                     
                                            #####                                    
                                            ######                                   
                                           ########,                                 
                                     ,,################,,,,,                         
                               ,,#################################,,                 
                          ,,##########################################,,             
                       ,#########################################, ''#####,          
                    ,#############################################,,   '####,        
                  ,##################################################,,,,####,       
                ,###########''''           ''''###############################       
              ,#####''   ,,,,##########,,,,          '''####'''          '####       
            ,##' ,,,,###########################,,,                        '##       
           ' ,,###''''                  '''############,,,                           
         ,,##''                                '''############,,,,        ,,,,,,###''
      ,#''                                            '''#######################'''  
     '                                                          ''''####''''         
             ,#######,   #######,   ,#######,      ##                                
            ,#'     '#,  ##    ##  ,#'     '#,    #''#        ######   ,####,        
            ##       ##  ##   ,#'  ##            #'  '#       #        #'  '#        
            ##       ##  #######   ##           ,######,      #####,   #    #        
            '#,     ,#'  ##    ##  '#,     ,#' ,#      #,         ##   #,  ,#        
             '#######'   ##     ##  '#######'  #'      '#     #####' # '####'        



                  #######################################################
                  #                        -***-                        #
                  #          Department of theory and spectroscopy      #
                  #    Directorship and core code : Frank Neese         #
                  #        Max Planck Institute fuer Kohlenforschung    #
                  #                Kaiser Wilhelm Platz 1               #
                  #                 D-45470 Muelheim/Ruhr               #
                  #                      Germany                        #
                  #                                                     #
                  #                  All rights reserved                #
                  #                        -***-                        #
                  #######################################################


                         Program Version 5.0.3 -  RELEASE  -


 With contributions from (in alphabetic order):
   Daniel Aravena         : Magnetic Suceptibility
   Michael Atanasov       : Ab Initio Ligand Field Theory (pilot matlab implementation)
   Alexander A. Auer      : GIAO ZORA, VPT2 properties, NMR spectrum
   Ute Becker             : Parallelization
   Giovanni Bistoni       : ED, misc. LED, open-shell LED, HFLD
   Martin Brehm           : Molecular dynamics
   Dmytro Bykov           : SCF Hessian
   Vijay G. Chilkuri      : MRCI spin determinant printing, contributions to CSF-ICE
   Dipayan Datta          : RHF DLPNO-CCSD density
   Achintya Kumar Dutta   : EOM-CC, STEOM-CC
   Dmitry Ganyushin       : Spin-Orbit,Spin-Spin,Magnetic field MRCI
   Miquel Garcia          : C-PCM and meta-GGA Hessian, CC/C-PCM, Gaussian charge scheme
   Yang Guo               : DLPNO-NEVPT2, F12-NEVPT2, CIM, IAO-localization
   Andreas Hansen         : Spin unrestricted coupled pair/coupled cluster methods
   Benjamin Helmich-Paris : MC-RPA, TRAH-SCF, COSX integrals
   Lee Huntington         : MR-EOM, pCC
   Robert Izsak           : Overlap fitted RIJCOSX, COSX-SCS-MP3, EOM
   Marcus Kettner         : VPT2
   Christian Kollmar      : KDIIS, OOCD, Brueckner-CCSD(T), CCSD density, CASPT2, CASPT2-K
   Simone Kossmann        : Meta GGA functionals, TD-DFT gradient, OOMP2, MP2 Hessian
   Martin Krupicka        : Initial AUTO-CI
   Lucas Lang             : DCDCAS
   Marvin Lechner         : AUTO-CI (C++ implementation), FIC-MRCC
   Dagmar Lenk            : GEPOL surface, SMD
   Dimitrios Liakos       : Extrapolation schemes; Compound Job, initial MDCI parallelization
   Dimitrios Manganas     : Further ROCIS development; embedding schemes
   Dimitrios Pantazis     : SARC Basis sets
   Anastasios Papadopoulos: AUTO-CI, single reference methods and gradients
   Taras Petrenko         : DFT Hessian,TD-DFT gradient, ASA, ECA, R-Raman, ABS, FL, XAS/XES, NRVS
   Peter Pinski           : DLPNO-MP2, DLPNO-MP2 Gradient
   Christoph Reimann      : Effective Core Potentials
   Marius Retegan         : Local ZFS, SOC
   Christoph Riplinger    : Optimizer, TS searches, QM/MM, DLPNO-CCSD(T), (RO)-DLPNO pert. Triples
   Tobias Risthaus        : Range-separated hybrids, TD-DFT gradient, RPA, STAB
   Michael Roemelt        : Original ROCIS implementation
   Masaaki Saitow         : Open-shell DLPNO-CCSD energy and density
   Barbara Sandhoefer     : DKH picture change effects
   Avijit Sen             : IP-ROCIS
   Kantharuban Sivalingam : CASSCF convergence, NEVPT2, FIC-MRCI
   Bernardo de Souza      : ESD, SOC TD-DFT
   Georgi Stoychev        : AutoAux, RI-MP2 NMR, DLPNO-MP2 response
   Willem Van den Heuvel  : Paramagnetic NMR
   Boris Wezisla          : Elementary symmetry handling
   Frank Wennmohs         : Technical directorship


 We gratefully acknowledge several colleagues who have allowed us to
 interface, adapt or use parts of their codes:
   Stefan Grimme, W. Hujo, H. Kruse, P. Pracht,  : VdW corrections, initial TS optimization,
                  C. Bannwarth, S. Ehlert          DFT functionals, gCP, sTDA/sTD-DF
   Ed Valeev, F. Pavosevic, A. Kumar             : LibInt (2-el integral package), F12 methods
   Garnet Chan, S. Sharma, J. Yang, R. Olivares  : DMRG
   Ulf Ekstrom                                   : XCFun DFT Library
   Mihaly Kallay                                 : mrcc  (arbitrary order and MRCC methods)
   Jiri Pittner, Ondrej Demel                    : Mk-CCSD
   Frank Weinhold                                : gennbo (NPA and NBO analysis)
   Christopher J. Cramer and Donald G. Truhlar   : smd solvation model
   Lars Goerigk                                  : TD-DFT with DH, B97 family of functionals
   V. Asgeirsson, H. Jonsson                     : NEB implementation
   FAccTs GmbH                                   : IRC, NEB, NEB-TS, DLPNO-Multilevel, CI-OPT
                                                   MM, QMMM, 2- and 3-layer-ONIOM, Crystal-QMMM,
                                                   LR-CPCM, SF, NACMEs, symmetry and pop. for TD-DFT,
                                                   nearIR, NL-DFT gradient (VV10), updates on ESD,
                                                   ML-optimized integration grids
   S Lehtola, MJT Oliveira, MAL Marques          : LibXC Library
   Liviu Ungur et al                             : ANISO software


 Your calculation uses the libint2 library for the computation of 2-el integrals
 For citations please refer to: http://libint.valeyev.net

 Your ORCA version has been built with support for libXC version: 5.1.0
 For citations please refer to: https://tddft.org/programs/libxc/

 This ORCA versions uses:
   CBLAS   interface :  Fast vector & matrix operations
   LAPACKE interface :  Fast linear algebra routines
   SCALAPACK package :  Parallel linear algebra routines
   Shared memory     :  Shared parallel matrices
   BLAS/LAPACK       :  OpenBLAS 0.3.15  USE64BITINT DYNAMIC_ARCH NO_AFFINITY Excavator SINGLE_THREADED
        Core in use  :  Excavator
   Copyright (c) 2011-2014, The OpenBLAS Project


SCAN-COORDS
================================================================================

----- Orbital basis set information -----
Your calculation utilizes the basis: def2-TZVP
   F. Weigend and R. Ahlrichs, Phys. Chem. Chem. Phys. 7, 3297 (2005).

----- AuxJ basis set information -----
Your calculation utilizes the auxiliary basis: def2/J
   F. Weigend, Phys. Chem. Chem. Phys. 8, 1057 (2006).

================================================================================
                                        WARNINGS
                       Please study these warnings very carefully!
================================================================================

WARNING: Gradients needed for Numerical Frequencies
  ===> : Setting RunTyp to EnGrad

INFO   : the flag for use of the SHARK integral package has been found!

================================================================================
                                       INPUT FILE
================================================================================
NAME = input.inp
|  1> ! PBE0 NumFreq
|  2> %method
|  3>         method DFT
|  4>         runtyp Energy
|  5> end
|  6> %basis
|  7>         basis "def2-TZVP"
|  8> end
|  9> %coords
| 10>         CTyp xyz
| 11>         Charge 0
| 12>         Mult 1
| 13>         Units Angs
| 14>         coords
| 15> 	#165
| 16> 	N     -1.011290    0.960957    0.000001
| 17> 	C      0.105157    0.905748   -0.299168
| 18> 	H     -2.068270    1.013340    0.000003
| 19> 	end
| 20> end
| 21> %eprnmr
| 22>         NMRShielding 1
| 23>         Nuclei = all N {shift}
| 24>         Nuclei = all C {shift}
| 25>         Nuclei = all H {shift}
| 26> end
| 27> 
| 28>                          ****END OF INPUT****
================================================================================

                     *******************************
                     * Energy+Gradient Calculation *
                     *******************************

---------------------------------
CARTESIAN COORDINATES (ANGSTROEM)
---------------------------------
  N     -1.011290    0.960957    0.000001
  C      0.105157    0.905748   -0.299168
  H     -2.068270    1.013340    0.000003

----------------------------
CARTESIAN COORDINATES (A.U.)
----------------------------
  NO LB      ZA    FRAG     MASS         X           Y           Z
   0 N     7.0000    0    14.007   -1.911061    1.815946    0.000002
   1 C     6.0000    0    12.011    0.198718    1.711616   -0.565346
   2 H     1.0000    0     1.008   -3.908464    1.914935    0.000006

--------------------------------
INTERNAL COORDINATES (ANGSTROEM)
--------------------------------
 N      0   0   0     0.000000000000     0.00000000     0.00000000
 C      1   0   0     1.157153415953     0.00000000     0.00000000
 H      1   2   0     1.058277231680   165.01673252     0.00000000

---------------------------
INTERNAL COORDINATES (A.U.)
---------------------------
 N      0   0   0     0.000000000000     0.00000000     0.00000000
 C      1   0   0     2.186703051082     0.00000000     0.00000000
 H      1   2   0     1.999854141640   165.01673252     0.00000000

---------------------
BASIS SET INFORMATION
---------------------
There are 3 groups of distinct atoms

 Group   1 Type N   : 11s6p2d1f contracted to 5s3p2d1f pattern {62111/411/11/1}
 Group   2 Type C   : 11s6p2d1f contracted to 5s3p2d1f pattern {62111/411/11/1}
 Group   3 Type H   : 5s1p contracted to 3s1p pattern {311/1}

Atom   0N    basis set group =>   1
Atom   1C    basis set group =>   2
Atom   2H    basis set group =>   3
---------------------------------
AUXILIARY/J BASIS SET INFORMATION
---------------------------------
There are 3 groups of distinct atoms

 Group   1 Type N   : 12s5p4d2f1g contracted to 6s4p3d1f1g pattern {711111/2111/211/2/1}
 Group   2 Type C   : 12s5p4d2f1g contracted to 6s4p3d1f1g pattern {711111/2111/211/2/1}
 Group   3 Type H   : 5s2p1d contracted to 3s1p1d pattern {311/2/1}

Atom   0N    basis set group =>   1
Atom   1C    basis set group =>   2
Atom   2H    basis set group =>   3

Checking for AutoStart:
The File: input.gbw exists
Trying to determine its content:
     ... Fine, the file contains calculation information
     ... Fine, the calculation information was read
     ... Fine, the file contains a basis set
     ... Fine, the basis set was read
     ... Fine, the file contains a geometry
     ... Fine, the geometry was read
     ... The file does not contain orbitals - skipping AutoStart
------------------------------------------------------------------------------
                           ORCA GTO INTEGRAL CALCULATION
                           -- RI-GTO INTEGRALS CHOSEN --
------------------------------------------------------------------------------
------------------------------------------------------------------------------
                   ___                                                        
                  /   \      - P O W E R E D   B Y -                         
                 /     \                                                     
                 |  |  |   _    _      __       _____    __    __             
                 |  |  |  | |  | |    /  \     |  _  \  |  |  /  |          
                  \  \/   | |  | |   /    \    | | | |  |  | /  /          
                 / \  \   | |__| |  /  /\  \   | |_| |  |  |/  /          
                |  |  |   |  __  | /  /__\  \  |    /   |      \           
                |  |  |   | |  | | |   __   |  |    \   |  |\   \          
                \     /   | |  | | |  |  |  |  | |\  \  |  | \   \       
                 \___/    |_|  |_| |__|  |__|  |_| \__\ |__|  \__/        
                                                                              
                      - O R C A' S   B I G   F R I E N D -                    
                                      &                                       
                       - I N T E G R A L  F E E D E R -                       
                                                                              
 v1 FN, 2020, v2 2021                                                         
------------------------------------------------------------------------------


Reading SHARK input file input.SHARKINP.tmp ... ok
----------------------
SHARK INTEGRAL PACKAGE
----------------------

Number of atoms                             ...      3
Number of basis functions                   ...     68
Number of shells                            ...     26
Maximum angular momentum                    ...      3
Integral batch strategy                     ... SHARK/LIBINT Hybrid
RI-J (if used) integral strategy            ... SPLIT-RIJ (Revised 2003 algorithm where possible)
Printlevel                                  ...      1
Contraction scheme used                     ... SEGMENTED contraction
Coulomb Range Separation                    ... NOT USED
Exchange Range Separation                   ... NOT USED
Finite Nucleus Model                        ... NOT USED
Auxiliary Coulomb fitting basis             ... AVAILABLE
   # of basis functions in Aux-J            ...    109
   # of shells in Aux-J                     ...     35
   Maximum angular momentum in Aux-J        ...      4
Auxiliary J/K fitting basis                 ... NOT available
Auxiliary Correlation fitting basis         ... NOT available
Auxiliary 'external' fitting basis          ... NOT available
Integral threshold                          ...     2.500000e-11
Primitive cut-off                           ...     2.500000e-12
Primitive pair pre-selection threshold      ...     2.500000e-12

Calculating pre-screening integrals         ... done (  0.1 sec) Dimension = 26
Organizing shell pair data                  ... done (  0.0 sec)
Shell pair information
Total number of shell pairs                 ...       351
Shell pairs after pre-screening             ...       350
Total number of primitive shell pairs       ...      1128
Primitive shell pairs kept                  ...      1030
          la=0 lb=0:     90 shell pairs
          la=1 lb=0:     91 shell pairs
          la=1 lb=1:     28 shell pairs
          la=2 lb=0:     52 shell pairs
          la=2 lb=1:     28 shell pairs
          la=2 lb=2:     10 shell pairs
          la=3 lb=0:     26 shell pairs
          la=3 lb=1:     14 shell pairs
          la=3 lb=2:      8 shell pairs
          la=3 lb=3:      3 shell pairs

Calculating one electron integrals          ... done (  0.0 sec)
Calculating RI/J V-Matrix + Cholesky decomp.... done (  0.0 sec)
Calculating Nuclear repulsion               ... done (  0.0 sec) ENN=     24.152725248447 Eh

SHARK setup successfully completed in   0.2 seconds

Maximum memory used throughout the entire GTOINT-calculation: 14.0 MB
-------------------------------------------------------------------------------
                                 ORCA SCF
-------------------------------------------------------------------------------

------------
SCF SETTINGS
------------
Hamiltonian:
 Density Functional     Method          .... DFT(GTOs)
 Exchange Functional    Exchange        .... PBE
   PBE kappa parameter   XKappa         ....  0.804000
   PBE mue parameter    XMuePBE         ....  0.219520
 Correlation Functional Correlation     .... PBE
   PBE beta parameter  CBetaPBE         ....  0.066725
 LDA part of GGA corr.  LDAOpt          .... PW91-LDA
 Gradients option       PostSCFGGA      .... off
 Hybrid DFT is turned on
   Fraction HF Exchange ScalHFX         ....  0.250000
   Scaling of DF-GGA-X  ScalDFX         ....  0.750000
   Scaling of DF-GGA-C  ScalDFC         ....  1.000000
   Scaling of DF-LDA-C  ScalLDAC        ....  1.000000
   Perturbative correction              ....  0.000000
   Density functional embedding theory  .... OFF
   NL short-range parameter             ....  6.900000
 RI-approximation to the Coulomb term is turned on
   Number of AuxJ basis functions       .... 109
   RIJ-COSX (HFX calculated with COS-X)).... on


General Settings:
 Integral files         IntName         .... input
 Hartree-Fock type      HFTyp           .... RHF
 Total Charge           Charge          ....    0
 Multiplicity           Mult            ....    1
 Number of Electrons    NEL             ....   14
 Basis Dimension        Dim             ....   68
 Nuclear Repulsion      ENuc            ....     24.1527252484 Eh

Convergence Acceleration:
 DIIS                   CNVDIIS         .... on
   Start iteration      DIISMaxIt       ....    12
   Startup error        DIISStart       ....  0.200000
   # of expansion vecs  DIISMaxEq       ....     5
   Bias factor          DIISBfac        ....   1.050
   Max. coefficient     DIISMaxC        ....  10.000
 Trust-Rad. Augm. Hess. CNVTRAH         .... auto
   Auto Start mean grad. ratio tolernc. ....  1.125000
   Auto Start start iteration           ....    20
   Auto Start num. interpolation iter.  ....    10
   Max. Number of Micro iterations      ....    16
   Max. Number of Macro iterations      .... Maxiter - #DIIS iter
   Number of Davidson start vectors     ....     2
   Converg. threshold I  (grad. norm)   ....   1.000e-05
   Converg. threshold II (energy diff.) ....   1.000e-08
   Grad. Scal. Fac. for Micro threshold ....   0.100
   Minimum threshold for Micro iter.    ....   0.010
   NR start threshold (gradient norm)   ....   0.001
   Initial trust radius                 ....   0.400
   Minimum AH scaling param. (alpha)    ....   1.000
   Maximum AH scaling param. (alpha)    .... 1000.000
   Orbital update algorithm             .... Taylor
   White noise on init. David. guess    .... on
   Maximum white noise                  ....   0.010
   Quad. conv. algorithm                .... NR
 SOSCF                  CNVSOSCF        .... on
   Start iteration      SOSCFMaxIt      ....   150
   Startup grad/error   SOSCFStart      ....  0.003300
 Level Shifting         CNVShift        .... on
   Level shift para.    LevelShift      ....    0.2500
   Turn off err/grad.   ShiftErr        ....    0.0010
 Zerner damping         CNVZerner       .... off
 Static damping         CNVDamp         .... on
   Fraction old density DampFac         ....    0.7000
   Max. Damping (<1)    DampMax         ....    0.9800
   Min. Damping (>=0)   DampMin         ....    0.0000
   Turn off err/grad.   DampErr         ....    0.1000
 Fernandez-Rico         CNVRico         .... off

SCF Procedure:
 Maximum # iterations   MaxIter         ....   125
 SCF integral mode      SCFMode         .... Direct
   Integral package                     .... SHARK and LIBINT hybrid scheme
 Reset frequency        DirectResetFreq ....    20
 Integral Threshold     Thresh          ....  2.500e-11 Eh
 Primitive CutOff       TCut            ....  2.500e-12 Eh

Convergence Tolerance:
 Convergence Check Mode ConvCheckMode   .... Total+1el-Energy
 Convergence forced     ConvForced      .... 0
 Energy Change          TolE            ....  1.000e-08 Eh
 1-El. energy change                    ....  1.000e-05 Eh
 Orbital Gradient       TolG            ....  1.000e-05
 Orbital Rotation angle TolX            ....  1.000e-05
 DIIS Error             TolErr          ....  5.000e-07


Diagonalization of the overlap matrix:
Smallest eigenvalue                        ... 4.792e-04
Time for diagonalization                   ...    0.002 sec
Threshold for overlap eigenvalues          ... 1.000e-08
Number of eigenvalues below threshold      ... 0
Time for construction of square roots      ...    0.001 sec
Total time needed                          ...    0.003 sec

Time for model grid setup =    0.025 sec

------------------------------
INITIAL GUESS: MODEL POTENTIAL
------------------------------
Loading Hartree-Fock densities                     ... done
Calculating cut-offs                               ... done
Initializing the effective Hamiltonian             ... done
Setting up the integral package (SHARK)            ... done
Starting the Coulomb interaction                   ... done (   0.0 sec)
Reading the grid                                   ... done
Mapping shells                                     ... done
Starting the XC term evaluation                    ... done (   0.0 sec)
  promolecular density results
     # of electrons  =     13.999509299
     EX              =    -11.844947207
     EC              =     -0.432714169
     EX+EC           =    -12.277661376
Transforming the Hamiltonian                       ... done (   0.0 sec)
Diagonalizing the Hamiltonian                      ... done (   0.0 sec)
Back transforming the eigenvectors                 ... done (   0.0 sec)
Now organizing SCF variables                       ... done
                      ------------------
                      INITIAL GUESS DONE (   0.1 sec)
                      ------------------
-------------------
DFT GRID GENERATION
-------------------

General Integration Accuracy     IntAcc      ... 4.388
Radial Grid Type                 RadialGrid  ... OptM3 with GC (2021)
Angular Grid (max. ang.)         AngularGrid ... 4 (Lebedev-302)
Angular grid pruning method      GridPruning ... 4 (adaptive)
Weight generation scheme         WeightScheme... Becke
Basis function cutoff            BFCut       ... 1.0000e-11
Integration weight cutoff        WCut        ... 1.0000e-14
Angular grids for H and He will be reduced by one unit
Partially contracted basis set               ... off
Rotationally invariant grid construction     ... off

Total number of grid points                  ...    15536
Total number of batches                      ...      244
Average number of points per batch           ...       63
Average number of grid points per atom       ...     5179
Time for grid setup =    0.128 sec

--------------------
COSX GRID GENERATION
--------------------

GRIDX 1
-------
General Integration Accuracy     IntAcc      ... 3.816
Radial Grid Type                 RadialGrid  ... OptM3 with GC (2021)
Angular Grid (max. ang.)         AngularGrid ... 1 (Lebedev-50)
Angular grid pruning method      GridPruning ... 4 (adaptive)
Weight generation scheme         WeightScheme... Becke
Basis function cutoff            BFCut       ... 1.0000e-11
Integration weight cutoff        WCut        ... 1.0000e-14
Angular grids for H and He will be reduced by one unit
Partially contracted basis set               ... on
Rotationally invariant grid construction     ... off

Total number of grid points                  ...     1979
Total number of batches                      ...       33
Average number of points per batch           ...       59
Average number of grid points per atom       ...      660
UseSFitting                                  ... on

GRIDX 2
-------
General Integration Accuracy     IntAcc      ... 4.020
Radial Grid Type                 RadialGrid  ... OptM3 with GC (2021)
Angular Grid (max. ang.)         AngularGrid ... 2 (Lebedev-110)
Angular grid pruning method      GridPruning ... 4 (adaptive)
Weight generation scheme         WeightScheme... Becke
Basis function cutoff            BFCut       ... 1.0000e-11
Integration weight cutoff        WCut        ... 1.0000e-14
Angular grids for H and He will be reduced by one unit
Partially contracted basis set               ... on
Rotationally invariant grid construction     ... off

Total number of grid points                  ...     4569
Total number of batches                      ...       73
Average number of points per batch           ...       62
Average number of grid points per atom       ...     1523
UseSFitting                                  ... on

GRIDX 3
-------
General Integration Accuracy     IntAcc      ... 4.338
Radial Grid Type                 RadialGrid  ... OptM3 with GC (2021)
Angular Grid (max. ang.)         AngularGrid ... 3 (Lebedev-194)
Angular grid pruning method      GridPruning ... 4 (adaptive)
Weight generation scheme         WeightScheme... Becke
Basis function cutoff            BFCut       ... 1.0000e-11
Integration weight cutoff        WCut        ... 1.0000e-14
Angular grids for H and He will be reduced by one unit
Partially contracted basis set               ... on
Rotationally invariant grid construction     ... off

Total number of grid points                  ...    10168
Total number of batches                      ...      161
Average number of points per batch           ...       63
Average number of grid points per atom       ...     3389
UseSFitting                                  ... on

Time for X-Grid setup             =    0.123 sec

--------------
SCF ITERATIONS
--------------
ITER       Energy         Delta-E        Max-DP      RMS-DP      [F,P]     Damp
               ***  Starting incremental Fock matrix formation  ***
  0    -93.2597200957   0.000000000000 0.03143796  0.00164317  0.1914816 0.7000
  1    -93.2862822921  -0.026562196398 0.02820713  0.00124724  0.0967997 0.7000
                               ***Turning on DIIS***
  2    -93.2978256247  -0.011543332596 0.06083552  0.00235238  0.0391131 0.0000
  3    -93.3154010049  -0.017575380236 0.01894934  0.00084985  0.0470743 0.0000
  4    -93.3189786143  -0.003577609403 0.01051776  0.00034515  0.0109356 0.0000
                      *** Initiating the SOSCF procedure ***
                           *** Shutting down DIIS ***
                      *** Re-Reading the Fockian *** 
                      *** Removing any level shift *** 
ITER      Energy       Delta-E        Grad      Rot      Max-DP    RMS-DP
  5    -93.31921955  -0.0002409393  0.000388  0.000388  0.002381  0.000090
               *** Restarting incremental Fock matrix formation ***
  6    -93.31918929   0.0000302651  0.000173  0.000412  0.000709  0.000033
  7    -93.31918930  -0.0000000092  0.000290  0.000222  0.000440  0.000018
  8    -93.31918971  -0.0000004146  0.000045  0.000083  0.000201  0.000010
  9    -93.31918973  -0.0000000216  0.000017  0.000014  0.000026  0.000001
 10    -93.31918974  -0.0000000029  0.000006  0.000009  0.000031  0.000001
                  ***Gradient check signals convergence***
              ***Rediagonalizing the Fockian in SOSCF/NRSCF***

               *****************************************************
               *                     SUCCESS                       *
               *           SCF CONVERGED AFTER  11 CYCLES          *
               *****************************************************

Old exchange energy                            =     -3.009029516 Eh
New exchange energy                            =     -3.009031842 Eh
Exchange energy change after final integration =     -0.000002326 Eh
Total energy after final integration           =    -93.319192063 Eh
Final COS-X integration done in                =     0.639 sec

----------------
TOTAL SCF ENERGY
----------------

Total Energy       :          -93.31919206 Eh           -2539.34431 eV

Components:
Nuclear Repulsion  :           24.15272525 Eh             657.22907 eV
Electronic Energy  :         -117.47191731 Eh           -3196.57338 eV
One Electron Energy:         -173.20170857 Eh           -4713.05810 eV
Two Electron Energy:           55.72979126 Eh            1516.48472 eV
Max COSX asymmetry :            0.00000102 Eh               0.00003 eV

Virial components:
Potential Energy   :         -186.21343594 Eh           -5067.12520 eV
Kinetic Energy     :           92.89424387 Eh            2527.78089 eV
Virial Ratio       :            2.00457454


DFT components:
N(Alpha)           :        7.000000020831 electrons
N(Beta)            :        7.000000020831 electrons
N(Total)           :       14.000000041663 electrons
E(X)               :       -9.023472587144 Eh       
E(C)               :       -0.441110044581 Eh       
E(XC)              :       -9.464582631725 Eh       
DFET-embed. en.    :        0.000000000000 Eh       

---------------
SCF CONVERGENCE
---------------

  Last Energy change         ...   -3.9591e-10  Tolerance :   1.0000e-08
  Last MAX-Density change    ...    6.6613e-16  Tolerance :   1.0000e-07
  Last RMS-Density change    ...    1.9153e-17  Tolerance :   5.0000e-09
  Last Orbital Gradient      ...    9.5815e-07  Tolerance :   1.0000e-05
  Last Orbital Rotation      ...    2.8030e-06  Tolerance :   1.0000e-05

             **** THE GBW FILE WAS UPDATED (input.gbw) ****
             **** DENSITY input.scfp WAS UPDATED ****
             **** ENERGY FILE WAS UPDATED (input.en.tmp) ****
             **** THE GBW FILE WAS UPDATED (input.gbw) ****
             **** DENSITY input.scfp WAS UPDATED ****
----------------
ORBITAL ENERGIES
----------------

  NO   OCC          E(Eh)            E(eV) 
   0   2.0000     -14.428218      -392.6118 
   1   2.0000     -10.275022      -279.5976 
   2   2.0000      -0.980612       -26.6838 
   3   2.0000      -0.668339       -18.1864 
   4   2.0000      -0.401482       -10.9249 
   5   2.0000      -0.399631       -10.8745 
   6   2.0000      -0.334162        -9.0930 
   7   0.0000       0.001266         0.0344 
   8   0.0000       0.021260         0.5785 
   9   0.0000       0.035805         0.9743 
  10   0.0000       0.143669         3.9094 
  11   0.0000       0.230605         6.2751 
  12   0.0000       0.242657         6.6030 
  13   0.0000       0.243343         6.6217 
  14   0.0000       0.307475         8.3668 
  15   0.0000       0.396532        10.7902 
  16   0.0000       0.405243        11.0272 
  17   0.0000       0.497932        13.5494 
  18   0.0000       0.592551        16.1241 
  19   0.0000       0.662793        18.0355 
  20   0.0000       0.663198        18.0465 
  21   0.0000       0.728502        19.8236 
  22   0.0000       0.838833        22.8258 
  23   0.0000       0.921145        25.0656 
  24   0.0000       1.130281        30.7565 
  25   0.0000       1.141279        31.0558 
  26   0.0000       1.143834        31.1253 
  27   0.0000       1.324830        36.0504 
  28   0.0000       1.356159        36.9030 
  29   0.0000       1.371854        37.3300 
  30   0.0000       1.386646        37.7325 
  31   0.0000       1.428211        38.8636 
  32   0.0000       1.441279        39.2192 
  33   0.0000       1.714002        46.6404 
  34   0.0000       1.986097        54.0444 
  35   0.0000       2.084684        56.7271 
  36   0.0000       2.141958        58.2856 
  37   0.0000       2.203856        59.9700 
  38   0.0000       2.208272        60.0901 
  39   0.0000       2.436265        66.2942 
  40   0.0000       2.677105        72.8477 
  41   0.0000       2.677113        72.8480 
  42   0.0000       2.764496        75.2258 
  43   0.0000       2.765858        75.2628 
  44   0.0000       2.955224        80.4157 
  45   0.0000       3.006363        81.8073 
  46   0.0000       3.016328        82.0785 
  47   0.0000       3.045945        82.8844 
  48   0.0000       3.083099        83.8954 
  49   0.0000       3.361855        91.4807 
  50   0.0000       3.543198        96.4153 
  51   0.0000       3.544013        96.4375 
  52   0.0000       3.790048       103.1324 
  53   0.0000       3.919307       106.6498 
  54   0.0000       3.920803       106.6905 
  55   0.0000       4.177251       113.6688 
  56   0.0000       4.451469       121.1306 
  57   0.0000       4.458527       121.3227 
  58   0.0000       4.535040       123.4047 
  59   0.0000       4.554183       123.9256 
  60   0.0000       4.788073       130.2901 
  61   0.0000       4.857276       132.1732 
  62   0.0000       5.440159       148.0343 
  63   0.0000       5.480988       149.1453 
  64   0.0000       5.545065       150.8889 
  65   0.0000       6.197327       168.6378 
  66   0.0000      21.973654       597.9335 
  67   0.0000      32.111100       873.7875 

                    ********************************
                    * MULLIKEN POPULATION ANALYSIS *
                    ********************************

-----------------------
MULLIKEN ATOMIC CHARGES
-----------------------
   0 N :   -0.154809
   1 C :   -0.170176
   2 H :    0.324985
Sum of atomic charges:    0.0000000

--------------------------------
MULLIKEN REDUCED ORBITAL CHARGES
--------------------------------
  0 N s       :     3.334823  s :     3.334823
      pz      :     1.381108  p :     3.793969
      px      :     1.043888
      py      :     1.368973
      dz2     :     0.004059  d :     0.021138
      dxz     :     0.004331
      dyz     :     0.000967
      dx2y2   :     0.007771
      dxy     :     0.004010
      f0      :     0.000388  f :     0.004878
      f+1     :     0.000964
      f-1     :     0.000062
      f+2     :     0.000831
      f-2     :     0.000181
      f+3     :     0.000958
      f-3     :     0.001494
  1 C s       :     3.857119  s :     3.857119
      pz      :     0.599521  p :     2.209793
      px      :     1.028810
      py      :     0.581462
      dz2     :     0.009184  d :     0.094576
      dxz     :     0.033077
      dyz     :     0.002144
      dx2y2   :     0.020117
      dxy     :     0.030055
      f0      :     0.000807  f :     0.008688
      f+1     :     0.001545
      f-1     :     0.000095
      f+2     :     0.001844
      f-2     :     0.000602
      f+3     :     0.000911
      f-3     :     0.002884
  2 H s       :     0.641058  s :     0.641058
      pz      :     0.007361  p :     0.033957
      px      :     0.019206
      py      :     0.007390


                     *******************************
                     * LOEWDIN POPULATION ANALYSIS *
                     *******************************

----------------------
LOEWDIN ATOMIC CHARGES
----------------------
   0 N :    0.043553
   1 C :   -0.245951
   2 H :    0.202397

-------------------------------
LOEWDIN REDUCED ORBITAL CHARGES
-------------------------------
  0 N s       :     3.087356  s :     3.087356
      pz      :     1.257069  p :     3.778768
      px      :     1.284832
      py      :     1.236867
      dz2     :     0.011502  d :     0.075603
      dxz     :     0.016788
      dyz     :     0.001085
      dx2y2   :     0.036018
      dxy     :     0.010211
      f0      :     0.001232  f :     0.014719
      f+1     :     0.003040
      f-1     :     0.000081
      f+2     :     0.002477
      f-2     :     0.000417
      f+3     :     0.005269
      f-3     :     0.002205
  1 C s       :     3.358706  s :     3.358706
      pz      :     0.651527  p :     2.561929
      px      :     1.281293
      py      :     0.629109
      dz2     :     0.029966  d :     0.264634
      dxz     :     0.082608
      dyz     :     0.005393
      dx2y2   :     0.070473
      dxy     :     0.076194
      f0      :     0.005514  f :     0.060682
      f+1     :     0.011487
      f-1     :     0.000634
      f+2     :     0.011944
      f-2     :     0.003405
      f+3     :     0.010109
      f-3     :     0.017588
  2 H s       :     0.698108  s :     0.698108
      pz      :     0.019205  p :     0.099495
      px      :     0.061193
      py      :     0.019097


                      *****************************
                      * MAYER POPULATION ANALYSIS *
                      *****************************

  NA   - Mulliken gross atomic population
  ZA   - Total nuclear charge
  QA   - Mulliken gross atomic charge
  VA   - Mayer's total valence
  BVA  - Mayer's bonded valence
  FA   - Mayer's free valence

  ATOM       NA         ZA         QA         VA         BVA        FA
  0 N      7.1548     7.0000    -0.1548     3.3126     3.3126     0.0000
  1 C      6.1702     6.0000    -0.1702     2.5218     2.5218    -0.0000
  2 H      0.6750     1.0000     0.3250     0.9111     0.9111    -0.0000

  Mayer bond orders larger than 0.100000
B(  0-N ,  1-C ) :   2.4617 B(  0-N ,  2-H ) :   0.8509 

-------
TIMINGS
-------

Total SCF time: 0 days 0 hours 0 min 6 sec 

Total time                  ....       6.047 sec
Sum of individual times     ....       5.899 sec  ( 97.6%)

Fock matrix formation       ....       5.568 sec  ( 92.1%)
  Split-RI-J                ....       0.395 sec  (  7.1% of F)
  Chain of spheres X        ....       3.671 sec  ( 65.9% of F)
  XC integration            ....       1.495 sec  ( 26.9% of F)
    Basis function eval.    ....       0.472 sec  ( 31.5% of XC)
    Density eval.           ....       0.303 sec  ( 20.3% of XC)
    XC-Functional eval.     ....       0.265 sec  ( 17.7% of XC)
    XC-Potential eval.      ....       0.378 sec  ( 25.3% of XC)
Diagonalization             ....       0.007 sec  (  0.1%)
Density matrix formation    ....       0.001 sec  (  0.0%)
Population analysis         ....       0.002 sec  (  0.0%)
Initial guess               ....       0.041 sec  (  0.7%)
Orbital Transformation      ....       0.000 sec  (  0.0%)
Orbital Orthonormalization  ....       0.000 sec  (  0.0%)
DIIS solution               ....       0.002 sec  (  0.0%)
SOSCF solution              ....       0.003 sec  (  0.0%)
Grid generation             ....       0.276 sec  (  4.6%)

Maximum memory used throughout the entire SCF-calculation: 64.4 MB

-------------------------   --------------------
FINAL SINGLE POINT ENERGY       -93.319192062778
-------------------------   --------------------

------------------------------------------------------------------------------
                         ORCA SCF GRADIENT CALCULATION
------------------------------------------------------------------------------

 ... reading COSX grid (gridx3)
Gradient of the Kohn-Sham DFT energy:
Kohn-Sham wavefunction type      ... RKS
Hartree-Fock exchange scaling    ...    0.250
Number of operators              ...    1
Number of atoms                  ...    3
Basis set dimensions             ...   68
Integral neglect threshold       ... 2.5e-11
Integral primitive cutoff        ... 2.5e-12
SHARK Integral package           ... ON

Nuc. rep. gradient       (SHARK) ... done (  0.0 sec)
HCore & Overlap gradient (SHARK) ... done (  0.0 sec)
RI-J gradient            (SHARK) ... done (  0.2 sec)
COSX-gradient                    ... done (  0.8 sec)
Exchange-correlation gradient    ... done

------------------
CARTESIAN GRADIENT
------------------

   1   N   :    0.067470668   -0.003388234    0.000795018
   2   C   :   -0.019209148    0.000964851    0.002267017
   3   H   :   -0.048304864    0.002394893   -0.003050229

Difference to translation invariance:
           :   -0.0000433436   -0.0000284904    0.0000118058

Difference to rotation invariance:
           :    0.0000284474    0.0000067808    0.0001628015

Norm of the cartesian gradient     ...    0.0853689887
RMS gradient                       ...    0.0284563296
MAX gradient                       ...    0.0674706683

-------
TIMINGS
-------

Total SCF gradient time            ...        1.676 sec

One electron gradient       ....       0.013 sec  (  0.8%)
RI-J Coulomb gradient       ....       0.185 sec  ( 11.0%)
COSX gradient               ....       0.772 sec  ( 46.1%)
XC gradient                 ....       0.493 sec  ( 29.4%)

Maximum memory used throughout the entire SCFGRAD-calculation: 39.4 MB

                            ***************************************
                            *     ORCA property calculations      *
                            ***************************************

                                    ---------------------
                                    Active property flags
                                    ---------------------
   (+) Dipole Moment
   (+) Chemical Shifts
   (+) Nuclear properties (Hyperfine,Quadrupole)


------------------------------------------------------------------------------
                       ORCA ELECTRIC PROPERTIES CALCULATION
------------------------------------------------------------------------------

Dipole Moment Calculation                       ... on
Quadrupole Moment Calculation                   ... off
Polarizability Calculation                      ... off
GBWName                                         ... input.gbw
Electron density                                ... input.scfp
The origin for moment calculation is the CENTER OF MASS  = (-1.047923,  1.773271 -0.251252)

-------------
DIPOLE MOMENT
-------------
                                X             Y             Z
Electronic contribution:      0.16559      -0.00820      -0.01659
Nuclear contribution   :     -1.42266       0.07046       0.12547
                        -----------------------------------------
Total Dipole Moment    :     -1.25708       0.06225       0.10888
                        -----------------------------------------
Magnitude (a.u.)       :      1.26332
Magnitude (Debye)      :      3.21110



--------------------
Rotational spectrum 
--------------------
 
Rotational constants in cm-1:   295.488186     1.529060     1.521189 
Rotational constants in MHz : 8858512.963349 45840.073484 45604.086397 

 Dipole components along the rotational axes: 
x,y,z [a.u.] :     1.251394    -0.173159     0.000003 
x,y,z [Debye]:     3.180790    -0.440134     0.000007 

 
------------------------------------------------------------------------------
                                ORCA EPR/NMR CALCULATION
------------------------------------------------------------------------------

GBWName                      ... input.gbw
Electron density             ... input.scfp
Spin density                 ... input.scfr
Treatment of gauge           ... GIAO (approximations 1/2el = 0,0)
Details of the CP(SCF) procedure:
       Solver   = POPLE   
       MaxIter  =    64   
       Tolerance=    1.000e-04
       COSX Grid=     1   
       Op-0     =   0-  6 =>   7- 67
Multiplicity                 ... 1
g-tensor                     ... 0
NMR chemical shifts          ... 1
NMR spin-spin couplings      ... 0
NMR spectrum                 ... 0
Number of nuclei for epr/nmr ... 3
   Nucleus:   0N 
       Hyperfine : Isotope=   14 I=   1.000 P=  38.568
       Quadrupole: Isotope=   14 I=   1.000 Q=   0.020
       Spin-Orbit: Zeff=   4.550
       Nuclear Spin-Spin: Gn=   0.000
       EPRNMR Input: 
       rho(0)=N f(grad)=N a(iso)=N a(dip)=N a(orb)=N sigma(nmr)=Y spin-spin(nmr)=all-N,DSO-N,PSO-N,FC-N,SD-N
   Nucleus:   1C 
       Hyperfine : Isotope=   13 I=   0.500 P= 134.190
       Quadrupole: Isotope=   13 I=   0.500 Q=   0.000
       Spin-Orbit: Zeff=   3.600
       Nuclear Spin-Spin: Gn=   0.000
       EPRNMR Input: 
       rho(0)=N f(grad)=N a(iso)=N a(dip)=N a(orb)=N sigma(nmr)=Y spin-spin(nmr)=all-N,DSO-N,PSO-N,FC-N,SD-N
   Nucleus:   2H 
       Hyperfine : Isotope=    1 I=   0.500 P= 533.551
       Quadrupole: Isotope=    2 I=   1.000 Q=   0.003
       Spin-Orbit: Zeff=   1.000
       Nuclear Spin-Spin: Gn=   0.000
       EPRNMR Input: 
       rho(0)=N f(grad)=N a(iso)=N a(dip)=N a(orb)=N sigma(nmr)=Y spin-spin(nmr)=all-N,DSO-N,PSO-N,FC-N,SD-N
Forming RHS of the CP-SCF equations         ... 
Calculating right hand sides for GIAO treatment        ... 
  Entering RightHandSide GIAO. ScalHFX=    0.2500 NeedHFX=1
     -> 1-electron GIAO integrals will be done analytically
     -> RIJCOSX used in SCF. Same chosen for GIAO calculation.
     Making grid for GIAO integrations   ...

GRID GIAO
---------

General Integration Accuracy     IntAcc      ... 4.388
Radial Grid Type                 RadialGrid  ... OptM3 with GC (2021)
Angular Grid (max. ang.)         AngularGrid ... 4 (Lebedev-302)
Angular grid pruning method      GridPruning ... 4 (adaptive)
Weight generation scheme         WeightScheme... Becke
Basis function cutoff            BFCut       ... 1.0000e-11
Integration weight cutoff        WCut        ... 1.0000e-14
Angular grids for H and He will be reduced by one unit
Partially contracted basis set               ... off
Rotationally invariant grid construction     ... off

Total number of grid points                  ...    15536
Total number of batches                      ...      244
Average number of points per batch           ...       63
Average number of grid points per atom       ...     5179

  One-electron GIAO integrals (SHARK)     ... done
  Calculating G(B)[P]                     ... (RI-J: SHARK-ok) (COSX-ok) (add-J+K:ok) => dG/dB done
  DFT XC-terms                            ... done
  Extracting occupied and virtual blocks  ... 
  Operator  0  NO=   7 NV=  61 
  Transforming and RHS contribution       ... done
  Adding eps_i * S(B)_ai terms            ... done
  Projecting overlap derivatives          ... done
  Building G[dS/dB_ij] (COSX)             ... done
  Transforming to MO basis                ... done
  Summing G[dS/dB_ij] into RHS contribs.  ... done

  GIAO profiling information: 
    Total GIAO time               ...       1.6 sec
       GIAO 1-electron integrals  ...       0.0 sec (  0.4%)
       GIAO G(dS/dB) terms        ...       0.1 sec (  8.2%)
       GIAO RI-J                  ...       0.1 sec (  7.9%)
       GIAO COSX                  ...       0.4 sec ( 26.7%)
       GIAO XC-terms              ...       0.8 sec ( 48.2%)

  GIAO right hand side done


------------------------------------------------------------------------------
                           ORCA CP-SCF CALCULATION
------------------------------------------------------------------------------

Input orbitals are from        ... input.gbw
Input Perturbation             ... input.pin.tmp
Wavefunction output            ... input.pout.tmp
Perturbation mode              ... Imaginary perturbation
Solver                         ... POPLE
Max. number of iterations      ... 64
Convergence tolerance          ... 1.000e-04
Integral handling              ... Direct
DFT GridXC                     ... 1
COSX GridX                     ... 1
COSX IntAccX                   ... 3.067
COSX Algorithm                 ... Auto
Number of perturbations        ... 3
Number of operators            ... 1
Orbital ranges used for CP-SCF:
 Operator 0:  Orbitals   0...  6  to   7... 67
Variables per perturbation     ... 427
DFT calculation                         ... on
XC functional terms                     ... off
Hybrid DFT                              ... on
   Exchange mixing (SCF)                ...  0.250
   Exchange mixing (CP-SCF)             ...  0.250
   GGA exch. scaling(SCF)               ...  0.750
   GGA exch. scaling (CP-SCF)           ...  0.750
   GGA corr. scaling (SCF)              ...  1.000
   GGA corr. scaling (CP-SCF)           ...  1.000

CP-SCF GRID
-----------

General Integration Accuracy     IntAcc      ... 3.467
Radial Grid Type                 RadialGrid  ... OptM3 with GC (2021)
Angular Grid (max. ang.)         AngularGrid ... 1 (Lebedev-50)
Angular grid pruning method      GridPruning ... 4 (adaptive)
Weight generation scheme         WeightScheme... Becke
Basis function cutoff            BFCut       ... 1.0000e-11
Integration weight cutoff        WCut        ... 1.0000e-14
Angular grids for H and He will be reduced by one unit
Partially contracted basis set               ... off
Rotationally invariant grid construction     ... off

Total number of grid points                  ...     2365
Total number of batches                      ...       38
Average number of points per batch           ...       62
Average number of grid points per atom       ...      788

CP-SCF GRIDX
------------

General Integration Accuracy     IntAcc      ... 3.067
Radial Grid Type                 RadialGrid  ... OptM3 with GC (2021)
Angular Grid (max. ang.)         AngularGrid ... 1 (Lebedev-50)
Angular grid pruning method      GridPruning ... 4 (adaptive)
Weight generation scheme         WeightScheme... Becke
Basis function cutoff            BFCut       ... 1.0000e-11
Integration weight cutoff        WCut        ... 1.0000e-14
Angular grids for H and He will be reduced by one unit
Partially contracted basis set               ... on
Rotationally invariant grid construction     ... off

Total number of grid points                  ...     1052
Total number of batches                      ...       17
Average number of points per batch           ...       61
Average number of grid points per atom       ...      351

Memory available               ... 1004.2 MB
Memory needed per perturbation ...   0.6 MB
Perturbations treated per batch... 3
Number of batches              ... 1
     CP-SCF ITERATION   0:   2.9783e-01 (   0.1 sec   0/  3 done)
     CP-SCF ITERATION   1:   9.0231e-03 (   0.1 sec   0/  3 done)
     CP-SCF ITERATION   2:   6.0019e-04 (   0.1 sec   0/  3 done)
     CP-SCF ITERATION   3:   5.0424e-05 (   0.1 sec   3/  3 done)
                    *** THE CP-SCF HAS CONVERGED ***

Forming final perturbed densities           ... done
Transforming perturbed density to AO basis  ... done

Magnetic field perturbation calculated in  2.169 sec

---------------
CHEMICAL SHIFTS
---------------

Note: using conversion factor for au to ppm alpha^2/2 =   26.625677252 
GIAO: Analytic para- and diamagnetic shielding integrals (SHARK)       ...done
 --------------
 Nucleus   0N :
 --------------

Diamagnetic contribution to the shielding tensor (ppm) : 
           345.877         -3.974        -4.799
            -1.481        316.170         0.237
             2.525         -9.345       318.192

Paramagnetic contribution to the shielding tensor (ppm): 
           -28.468        -12.828       -67.664
           -15.306       -337.589         3.348
          -131.067         15.714      -324.310

Total shielding tensor (ppm): 
           317.409        -16.802       -72.464
           -16.788        -21.419         3.585
          -128.541          6.369        -6.119


 Diagonalized sT*s matrix:
 
 sDSO           315.967          318.844          345.428  iso=     326.746
 sPSO          -338.216         -350.628           -1.523  iso=    -230.122
        ---------------  ---------------  ---------------
 Total          -22.249          -31.785          343.905  iso=      96.624

 --------------
 Nucleus   1C :
 --------------

Diamagnetic contribution to the shielding tensor (ppm) : 
           274.533          0.472        -5.350
            -0.837        257.605         0.265
             0.799          5.119       256.211

Paramagnetic contribution to the shielding tensor (ppm): 
           -17.743        -19.461       -85.123
           -18.162       -383.776         4.207
           -62.878         -2.054      -358.048

Total shielding tensor (ppm): 
           256.789        -18.989       -90.473
           -18.999       -126.172         4.472
           -62.079          3.065      -101.837


 Diagonalized sT*s matrix:
 
 sDSO           256.392          257.631          274.325  iso=     262.783
 sPSO          -370.608         -384.742           -4.217  iso=    -253.189
        ---------------  ---------------  ---------------
 Total         -114.216         -127.111          270.108  iso=       9.593

 --------------
 Nucleus   2H :
 --------------

Diamagnetic contribution to the shielding tensor (ppm) : 
            39.051         -1.771        -0.526
            -1.024         18.480         0.026
             0.649         -2.811        19.187

Paramagnetic contribution to the shielding tensor (ppm): 
            -1.194          0.852        -0.323
             0.107          0.877         0.016
            -5.741          3.064         0.253

Total shielding tensor (ppm): 
            37.857         -0.919        -0.849
            -0.917         19.357         0.042
            -5.091          0.252        19.440


 Diagonalized sT*s matrix:
 
 sDSO            19.500           18.390           38.828  iso=      25.573
 sPSO            -0.501            0.922           -0.484  iso=      -0.021
        ---------------  ---------------  ---------------
 Total           18.999           19.311           38.343  iso=      25.551



--------------------------------
CHEMICAL SHIELDING SUMMARY (ppm)
--------------------------------


  Nucleus  Element    Isotropic     Anisotropy
  -------  -------  ------------   ------------
      0       N           96.624        370.922 
      1       C            9.593        390.772 
      2       H           25.551         19.188 



Maximum memory used throughout the entire EPRNMR-calculation: 21.9 MB

----------------------------------------------------------------------------
                           ORCA NUMERICAL FREQUENCIES
----------------------------------------------------------------------------

Number of atoms                ... 3
Central differences            ... used
Number of displacements        ... 18
Numerical increment            ... 5.000e-03 bohr
IR-spectrum generation         ... on
Raman-spectrum generation      ... off
Surface Crossing Hessian       ... off

The output will be reduced. Please look at the following files:
SCF program output             ... >input.lastscf
Integral program output        ... >input.lastint
Gradient program output        ... >input.lastgrad
Dipole moment program output   ... >input.lastmom
AutoCI program output          ... >input.lastautoci

	<< Calculating on displaced geometry   1 (of  18) >>
	<< Calculating on displaced geometry   2 (of  18) >>
	<< Calculating on displaced geometry   3 (of  18) >>
	<< Calculating on displaced geometry   4 (of  18) >>
	<< Calculating on displaced geometry   5 (of  18) >>
	<< Calculating on displaced geometry   6 (of  18) >>
	<< Calculating on displaced geometry   7 (of  18) >>
	<< Calculating on displaced geometry   8 (of  18) >>
	<< Calculating on displaced geometry   9 (of  18) >>
	<< Calculating on displaced geometry  10 (of  18) >>
	<< Calculating on displaced geometry  11 (of  18) >>
	<< Calculating on displaced geometry  12 (of  18) >>
	<< Calculating on displaced geometry  13 (of  18) >>
	<< Calculating on displaced geometry  14 (of  18) >>
	<< Calculating on displaced geometry  15 (of  18) >>
	<< Calculating on displaced geometry  16 (of  18) >>
	<< Calculating on displaced geometry  17 (of  18) >>
	<< Calculating on displaced geometry  18 (of  18) >>

-----------------------
VIBRATIONAL FREQUENCIES
-----------------------

Scaling factor for frequencies =  1.000000000 (already applied!)

   0:         0.00 cm**-1
   1:         0.00 cm**-1
   2:         0.00 cm**-1
   3:         0.00 cm**-1
   4:         0.00 cm**-1
   5:         0.00 cm**-1
   6:       902.35 cm**-1
   7:      2153.55 cm**-1
   8:      3170.63 cm**-1


------------
NORMAL MODES
------------

These modes are the cartesian displacements weighted by the diagonal matrix
M(i,i)=1/sqrt(m[i]) where m[i] is the mass of the displaced atom
Thus, these vectors are normalized but *not* orthogonal

                  0          1          2          3          4          5    
      0       0.000000   0.000000   0.000000   0.000000   0.000000   0.000000
      1       0.000000   0.000000   0.000000   0.000000   0.000000   0.000000
      2       0.000000   0.000000   0.000000   0.000000   0.000000   0.000000
      3       0.000000   0.000000   0.000000   0.000000   0.000000   0.000000
      4       0.000000   0.000000   0.000000   0.000000   0.000000   0.000000
      5       0.000000   0.000000   0.000000   0.000000   0.000000   0.000000
      6       0.000000   0.000000   0.000000   0.000000   0.000000   0.000000
      7       0.000000   0.000000   0.000000   0.000000   0.000000   0.000000
      8       0.000000   0.000000   0.000000   0.000000   0.000000   0.000000
                  6          7          8    
      0      -0.019547  -0.347195   0.107335
      1       0.001023   0.017166  -0.005315
      2      -0.133154   0.099236  -0.010929
      3       0.022883   0.471305  -0.041926
      4      -0.001163  -0.023308   0.002073
      5       0.072367  -0.121155   0.011969
      6      -0.001040  -0.791356  -0.991930
      7      -0.000348   0.039193   0.049155
      8       0.987990   0.064671   0.009245


-----------
IR SPECTRUM
-----------

 Mode   freq       eps      Int      T**2         TX        TY        TZ
       cm**-1   L/(mol*cm) km/mol    a.u.
----------------------------------------------------------------------------
  6:    902.35   0.029393  148.54  0.010165  (-0.014278  0.000664  0.099804)
  7:   2153.55   0.009761   49.33  0.001414  ( 0.033939 -0.001657 -0.016117)
  8:   3170.63   0.055261  279.27  0.005439  (-0.073494  0.003697  0.004891)

* The epsilon (eps) is given for a Dirac delta lineshape.
** The dipole moment derivative (T) already includes vibrational overlap.

The first frequency considered to be a vibration is 6
The total number of vibrations considered is 3


--------------------------
THERMOCHEMISTRY AT 298.15K
--------------------------

Temperature         ... 298.15 K
Pressure            ... 1.00 atm
Total Mass          ... 27.03 AMU

Throughout the following assumptions are being made:
  (1) The electronic state is orbitally nondegenerate
  (2) There are no thermally accessible electronically excited states
  (3) Hindered rotations indicated by low frequency modes are not
      treated as such but are treated as vibrations and this may
      cause some error
  (4) All equations used are the standard statistical mechanics
      equations for an ideal gas
  (5) All vibrations are strictly harmonic

freq.     902.35  E(vib)   ...       0.03 
freq.    2153.55  E(vib)   ...       0.00 
freq.    3170.63  E(vib)   ...       0.00 

------------
INNER ENERGY
------------

The inner energy is: U= E(el) + E(ZPE) + E(vib) + E(rot) + E(trans)
    E(el)   - is the total energy from the electronic structure calculation
              = E(kin-el) + E(nuc-el) + E(el-el) + E(nuc-nuc)
    E(ZPE)  - the the zero temperature vibrational energy from the frequency calculation
    E(vib)  - the the finite temperature correction to E(ZPE) due to population
              of excited vibrational states
    E(rot)  - is the rotational thermal energy
    E(trans)- is the translational thermal energy

Summary of contributions to the inner energy U:
Electronic energy                ...    -93.31919206 Eh
Zero point energy                ...      0.01418510 Eh       8.90 kcal/mol
Thermal vibrational correction   ...      0.00005383 Eh       0.03 kcal/mol
Thermal rotational correction    ...      0.00141627 Eh       0.89 kcal/mol
Thermal translational correction ...      0.00141627 Eh       0.89 kcal/mol
-----------------------------------------------------------------------
Total thermal energy                    -93.30212060 Eh


Summary of corrections to the electronic energy:
(perhaps to be used in another calculation)
Total thermal correction                  0.00288637 Eh       1.81 kcal/mol
Non-thermal (ZPE) correction              0.01418510 Eh       8.90 kcal/mol
-----------------------------------------------------------------------
Total correction                          0.01707147 Eh      10.71 kcal/mol


--------
ENTHALPY
--------

The enthalpy is H = U + kB*T
                kB is Boltzmann's constant
Total free energy                 ...    -93.30212060 Eh 
Thermal Enthalpy correction       ...      0.00094421 Eh       0.59 kcal/mol
-----------------------------------------------------------------------
Total Enthalpy                    ...    -93.30117639 Eh


Note: Rotational entropy computed according to Herzberg 
Infrared and Raman Spectra, Chapter V,1, Van Nostrand Reinhold, 1945 
Point Group:  Cs, Symmetry Number:   1  
Rotational constants in cm-1:   295.488186     1.529060     1.521189 

Vibrational entropy computed according to the QRRHO of S. Grimme
Chem.Eur.J. 2012 18 9955


-------
ENTROPY
-------

The entropy contributions are T*S = T*(S(el)+S(vib)+S(rot)+S(trans))
     S(el)   - electronic entropy
     S(vib)  - vibrational entropy
     S(rot)  - rotational entropy
     S(trans)- translational entropy
The entropies will be listed as multiplied by the temperature to get
units of energy

Electronic entropy                ...      0.00000000 Eh      0.00 kcal/mol
Vibrational entropy               ...      0.00006610 Eh      0.04 kcal/mol
Rotational entropy                ...      0.00642675 Eh      4.03 kcal/mol
Translational entropy             ...      0.01701823 Eh     10.68 kcal/mol
-----------------------------------------------------------------------
Final entropy term                ...      0.02351109 Eh     14.75 kcal/mol

In case the symmetry of your molecule has not been determined correctly
or in case you have a reason to use a different symmetry number we print 
out the resulting rotational entropy values for sn=1,12 :
 --------------------------------------------------------
|  sn= 1 | S(rot)=       0.00642675 Eh      4.03 kcal/mol|
|  sn= 2 | S(rot)=       0.00577229 Eh      3.62 kcal/mol|
|  sn= 3 | S(rot)=       0.00538946 Eh      3.38 kcal/mol|
|  sn= 4 | S(rot)=       0.00511784 Eh      3.21 kcal/mol|
|  sn= 5 | S(rot)=       0.00490715 Eh      3.08 kcal/mol|
|  sn= 6 | S(rot)=       0.00473500 Eh      2.97 kcal/mol|
|  sn= 7 | S(rot)=       0.00458946 Eh      2.88 kcal/mol|
|  sn= 8 | S(rot)=       0.00446338 Eh      2.80 kcal/mol|
|  sn= 9 | S(rot)=       0.00435217 Eh      2.73 kcal/mol|
|  sn=10 | S(rot)=       0.00425269 Eh      2.67 kcal/mol|
|  sn=11 | S(rot)=       0.00416270 Eh      2.61 kcal/mol|
|  sn=12 | S(rot)=       0.00408055 Eh      2.56 kcal/mol|
 --------------------------------------------------------


-------------------
GIBBS FREE ENERGY
-------------------

The Gibbs free energy is G = H - T*S

Total enthalpy                    ...    -93.30117639 Eh 
Total entropy correction          ...     -0.02351109 Eh    -14.75 kcal/mol
-----------------------------------------------------------------------
Final Gibbs free energy         ...    -93.32468748 Eh

For completeness - the Gibbs free energy minus the electronic energy
G-E(el)                           ...     -0.00549541 Eh     -3.45 kcal/mol



Timings for individual modules:

Sum of individual times         ...      196.020 sec (=   3.267 min)
GTO integral calculation        ...        0.381 sec (=   0.006 min)   0.2 %
SCF iterations                  ...       12.312 sec (=   0.205 min)   6.3 %
EPR/NMR calculation             ...        2.313 sec (=   0.039 min)   1.2 %
SCF Gradient evaluation         ...        3.452 sec (=   0.058 min)   1.8 %
Numerical frequency calculation ...      177.562 sec (=   2.959 min)  90.6 %
                             ****ORCA TERMINATED NORMALLY****
TOTAL RUN TIME: 0 days 0 hours 3 minutes 8 seconds 64 msec
