
                                 *****************
                                 * O   R   C   A *
                                 *****************

                                            #,                                       
                                            ###                                      
                                            ####                                     
                                            #####                                    
                                            ######                                   
                                           ########,                                 
                                     ,,################,,,,,                         
                               ,,#################################,,                 
                          ,,##########################################,,             
                       ,#########################################, ''#####,          
                    ,#############################################,,   '####,        
                  ,##################################################,,,,####,       
                ,###########''''           ''''###############################       
              ,#####''   ,,,,##########,,,,          '''####'''          '####       
            ,##' ,,,,###########################,,,                        '##       
           ' ,,###''''                  '''############,,,                           
         ,,##''                                '''############,,,,        ,,,,,,###''
      ,#''                                            '''#######################'''  
     '                                                          ''''####''''         
             ,#######,   #######,   ,#######,      ##                                
            ,#'     '#,  ##    ##  ,#'     '#,    #''#        ######   ,####,        
            ##       ##  ##   ,#'  ##            #'  '#       #        #'  '#        
            ##       ##  #######   ##           ,######,      #####,   #    #        
            '#,     ,#'  ##    ##  '#,     ,#' ,#      #,         ##   #,  ,#        
             '#######'   ##     ##  '#######'  #'      '#     #####' # '####'        



                  #######################################################
                  #                        -***-                        #
                  #          Department of theory and spectroscopy      #
                  #    Directorship and core code : Frank Neese         #
                  #        Max Planck Institute fuer Kohlenforschung    #
                  #                Kaiser Wilhelm Platz 1               #
                  #                 D-45470 Muelheim/Ruhr               #
                  #                      Germany                        #
                  #                                                     #
                  #                  All rights reserved                #
                  #                        -***-                        #
                  #######################################################


                         Program Version 5.0.3 -  RELEASE  -


 With contributions from (in alphabetic order):
   Daniel Aravena         : Magnetic Suceptibility
   Michael Atanasov       : Ab Initio Ligand Field Theory (pilot matlab implementation)
   Alexander A. Auer      : GIAO ZORA, VPT2 properties, NMR spectrum
   Ute Becker             : Parallelization
   Giovanni Bistoni       : ED, misc. LED, open-shell LED, HFLD
   Martin Brehm           : Molecular dynamics
   Dmytro Bykov           : SCF Hessian
   Vijay G. Chilkuri      : MRCI spin determinant printing, contributions to CSF-ICE
   Dipayan Datta          : RHF DLPNO-CCSD density
   Achintya Kumar Dutta   : EOM-CC, STEOM-CC
   Dmitry Ganyushin       : Spin-Orbit,Spin-Spin,Magnetic field MRCI
   Miquel Garcia          : C-PCM and meta-GGA Hessian, CC/C-PCM, Gaussian charge scheme
   Yang Guo               : DLPNO-NEVPT2, F12-NEVPT2, CIM, IAO-localization
   Andreas Hansen         : Spin unrestricted coupled pair/coupled cluster methods
   Benjamin Helmich-Paris : MC-RPA, TRAH-SCF, COSX integrals
   Lee Huntington         : MR-EOM, pCC
   Robert Izsak           : Overlap fitted RIJCOSX, COSX-SCS-MP3, EOM
   Marcus Kettner         : VPT2
   Christian Kollmar      : KDIIS, OOCD, Brueckner-CCSD(T), CCSD density, CASPT2, CASPT2-K
   Simone Kossmann        : Meta GGA functionals, TD-DFT gradient, OOMP2, MP2 Hessian
   Martin Krupicka        : Initial AUTO-CI
   Lucas Lang             : DCDCAS
   Marvin Lechner         : AUTO-CI (C++ implementation), FIC-MRCC
   Dagmar Lenk            : GEPOL surface, SMD
   Dimitrios Liakos       : Extrapolation schemes; Compound Job, initial MDCI parallelization
   Dimitrios Manganas     : Further ROCIS development; embedding schemes
   Dimitrios Pantazis     : SARC Basis sets
   Anastasios Papadopoulos: AUTO-CI, single reference methods and gradients
   Taras Petrenko         : DFT Hessian,TD-DFT gradient, ASA, ECA, R-Raman, ABS, FL, XAS/XES, NRVS
   Peter Pinski           : DLPNO-MP2, DLPNO-MP2 Gradient
   Christoph Reimann      : Effective Core Potentials
   Marius Retegan         : Local ZFS, SOC
   Christoph Riplinger    : Optimizer, TS searches, QM/MM, DLPNO-CCSD(T), (RO)-DLPNO pert. Triples
   Tobias Risthaus        : Range-separated hybrids, TD-DFT gradient, RPA, STAB
   Michael Roemelt        : Original ROCIS implementation
   Masaaki Saitow         : Open-shell DLPNO-CCSD energy and density
   Barbara Sandhoefer     : DKH picture change effects
   Avijit Sen             : IP-ROCIS
   Kantharuban Sivalingam : CASSCF convergence, NEVPT2, FIC-MRCI
   Bernardo de Souza      : ESD, SOC TD-DFT
   Georgi Stoychev        : AutoAux, RI-MP2 NMR, DLPNO-MP2 response
   Willem Van den Heuvel  : Paramagnetic NMR
   Boris Wezisla          : Elementary symmetry handling
   Frank Wennmohs         : Technical directorship


 We gratefully acknowledge several colleagues who have allowed us to
 interface, adapt or use parts of their codes:
   Stefan Grimme, W. Hujo, H. Kruse, P. Pracht,  : VdW corrections, initial TS optimization,
                  C. Bannwarth, S. Ehlert          DFT functionals, gCP, sTDA/sTD-DF
   Ed Valeev, F. Pavosevic, A. Kumar             : LibInt (2-el integral package), F12 methods
   Garnet Chan, S. Sharma, J. Yang, R. Olivares  : DMRG
   Ulf Ekstrom                                   : XCFun DFT Library
   Mihaly Kallay                                 : mrcc  (arbitrary order and MRCC methods)
   Jiri Pittner, Ondrej Demel                    : Mk-CCSD
   Frank Weinhold                                : gennbo (NPA and NBO analysis)
   Christopher J. Cramer and Donald G. Truhlar   : smd solvation model
   Lars Goerigk                                  : TD-DFT with DH, B97 family of functionals
   V. Asgeirsson, H. Jonsson                     : NEB implementation
   FAccTs GmbH                                   : IRC, NEB, NEB-TS, DLPNO-Multilevel, CI-OPT
                                                   MM, QMMM, 2- and 3-layer-ONIOM, Crystal-QMMM,
                                                   LR-CPCM, SF, NACMEs, symmetry and pop. for TD-DFT,
                                                   nearIR, NL-DFT gradient (VV10), updates on ESD,
                                                   ML-optimized integration grids
   S Lehtola, MJT Oliveira, MAL Marques          : LibXC Library
   Liviu Ungur et al                             : ANISO software


 Your calculation uses the libint2 library for the computation of 2-el integrals
 For citations please refer to: http://libint.valeyev.net

 Your ORCA version has been built with support for libXC version: 5.1.0
 For citations please refer to: https://tddft.org/programs/libxc/

 This ORCA versions uses:
   CBLAS   interface :  Fast vector & matrix operations
   LAPACKE interface :  Fast linear algebra routines
   SCALAPACK package :  Parallel linear algebra routines
   Shared memory     :  Shared parallel matrices
   BLAS/LAPACK       :  OpenBLAS 0.3.15  USE64BITINT DYNAMIC_ARCH NO_AFFINITY Excavator SINGLE_THREADED
        Core in use  :  Excavator
   Copyright (c) 2011-2014, The OpenBLAS Project


SCAN-COORDS
================================================================================

----- Orbital basis set information -----
Your calculation utilizes the basis: def2-TZVP
   F. Weigend and R. Ahlrichs, Phys. Chem. Chem. Phys. 7, 3297 (2005).

----- AuxJ basis set information -----
Your calculation utilizes the auxiliary basis: def2/J
   F. Weigend, Phys. Chem. Chem. Phys. 8, 1057 (2006).

================================================================================
                                        WARNINGS
                       Please study these warnings very carefully!
================================================================================

WARNING: Gradients needed for Numerical Frequencies
  ===> : Setting RunTyp to EnGrad

INFO   : the flag for use of the SHARK integral package has been found!

================================================================================
                                       INPUT FILE
================================================================================
NAME = input.inp
|  1> ! PBE0 NumFreq
|  2> %method
|  3>         method DFT
|  4>         runtyp Energy
|  5> end
|  6> %basis
|  7>         basis "def2-TZVP"
|  8> end
|  9> %coords
| 10>         CTyp xyz
| 11>         Charge 0
| 12>         Mult 1
| 13>         Units Angs
| 14>         coords
| 15> 	#45		
| 16> 	N     -1.011290    0.960957    0.000001
| 17> 	C     -1.825747    1.001235   -0.820998
| 18> 	H     -2.068270    1.013340    0.000003
| 19>         end
| 20> end
| 21> %eprnmr
| 22>         NMRShielding 1
| 23>         Nuclei = all N {shift}
| 24>         Nuclei = all C {shift}
| 25>         Nuclei = all H {shift}
| 26> end
| 27> 
| 28>                          ****END OF INPUT****
================================================================================

                     *******************************
                     * Energy+Gradient Calculation *
                     *******************************

---------------------------------
CARTESIAN COORDINATES (ANGSTROEM)
---------------------------------
  N     -1.011290    0.960957    0.000001
  C     -1.825747    1.001235   -0.820998
  H     -2.068270    1.013340    0.000003

----------------------------
CARTESIAN COORDINATES (A.U.)
----------------------------
  NO LB      ZA    FRAG     MASS         X           Y           Z
   0 N     7.0000    0    14.007   -1.911061    1.815946    0.000002
   1 C     6.0000    0    12.011   -3.450162    1.892060   -1.551461
   2 H     1.0000    0     1.008   -3.908464    1.914935    0.000006

--------------------------------
INTERNAL COORDINATES (ANGSTROEM)
--------------------------------
 N      0   0   0     0.000000000000     0.00000000     0.00000000
 C      1   0   0     1.157152487849     0.00000000     0.00000000
 H      2   1   0     0.856158033633    61.28227107     0.00000000

---------------------------
INTERNAL COORDINATES (A.U.)
---------------------------
 N      0   0   0     0.000000000000     0.00000000     0.00000000
 C      1   0   0     2.186701297219     0.00000000     0.00000000
 H      2   1   0     1.617904210924    61.28227107     0.00000000

---------------------
BASIS SET INFORMATION
---------------------
There are 3 groups of distinct atoms

 Group   1 Type N   : 11s6p2d1f contracted to 5s3p2d1f pattern {62111/411/11/1}
 Group   2 Type C   : 11s6p2d1f contracted to 5s3p2d1f pattern {62111/411/11/1}
 Group   3 Type H   : 5s1p contracted to 3s1p pattern {311/1}

Atom   0N    basis set group =>   1
Atom   1C    basis set group =>   2
Atom   2H    basis set group =>   3
---------------------------------
AUXILIARY/J BASIS SET INFORMATION
---------------------------------
There are 3 groups of distinct atoms

 Group   1 Type N   : 12s5p4d2f1g contracted to 6s4p3d1f1g pattern {711111/2111/211/2/1}
 Group   2 Type C   : 12s5p4d2f1g contracted to 6s4p3d1f1g pattern {711111/2111/211/2/1}
 Group   3 Type H   : 5s2p1d contracted to 3s1p1d pattern {311/2/1}

Atom   0N    basis set group =>   1
Atom   1C    basis set group =>   2
Atom   2H    basis set group =>   3
------------------------------------------------------------------------------
                           ORCA GTO INTEGRAL CALCULATION
                           -- RI-GTO INTEGRALS CHOSEN --
------------------------------------------------------------------------------
------------------------------------------------------------------------------
                   ___                                                        
                  /   \      - P O W E R E D   B Y -                         
                 /     \                                                     
                 |  |  |   _    _      __       _____    __    __             
                 |  |  |  | |  | |    /  \     |  _  \  |  |  /  |          
                  \  \/   | |  | |   /    \    | | | |  |  | /  /          
                 / \  \   | |__| |  /  /\  \   | |_| |  |  |/  /          
                |  |  |   |  __  | /  /__\  \  |    /   |      \           
                |  |  |   | |  | | |   __   |  |    \   |  |\   \          
                \     /   | |  | | |  |  |  |  | |\  \  |  | \   \       
                 \___/    |_|  |_| |__|  |__|  |_| \__\ |__|  \__/        
                                                                              
                      - O R C A' S   B I G   F R I E N D -                    
                                      &                                       
                       - I N T E G R A L  F E E D E R -                       
                                                                              
 v1 FN, 2020, v2 2021                                                         
------------------------------------------------------------------------------


Reading SHARK input file input.SHARKINP.tmp ... ok
----------------------
SHARK INTEGRAL PACKAGE
----------------------

Number of atoms                             ...      3
Number of basis functions                   ...     68
Number of shells                            ...     26
Maximum angular momentum                    ...      3
Integral batch strategy                     ... SHARK/LIBINT Hybrid
RI-J (if used) integral strategy            ... SPLIT-RIJ (Revised 2003 algorithm where possible)
Printlevel                                  ...      1
Contraction scheme used                     ... SEGMENTED contraction
Coulomb Range Separation                    ... NOT USED
Exchange Range Separation                   ... NOT USED
Finite Nucleus Model                        ... NOT USED
Auxiliary Coulomb fitting basis             ... AVAILABLE
   # of basis functions in Aux-J            ...    109
   # of shells in Aux-J                     ...     35
   Maximum angular momentum in Aux-J        ...      4
Auxiliary J/K fitting basis                 ... NOT available
Auxiliary Correlation fitting basis         ... NOT available
Auxiliary 'external' fitting basis          ... NOT available
Integral threshold                          ...     2.500000e-11
Primitive cut-off                           ...     2.500000e-12
Primitive pair pre-selection threshold      ...     2.500000e-12

Calculating pre-screening integrals         ... done (  0.1 sec) Dimension = 26
Organizing shell pair data                  ... done (  0.0 sec)
Shell pair information
Total number of shell pairs                 ...       351
Shell pairs after pre-screening             ...       350
Total number of primitive shell pairs       ...      1128
Primitive shell pairs kept                  ...      1045
          la=0 lb=0:     90 shell pairs
          la=1 lb=0:     91 shell pairs
          la=1 lb=1:     28 shell pairs
          la=2 lb=0:     52 shell pairs
          la=2 lb=1:     28 shell pairs
          la=2 lb=2:     10 shell pairs
          la=3 lb=0:     26 shell pairs
          la=3 lb=1:     14 shell pairs
          la=3 lb=2:      8 shell pairs
          la=3 lb=3:      3 shell pairs

Calculating one electron integrals          ... done (  0.0 sec)
Calculating RI/J V-Matrix + Cholesky decomp.... done (  0.0 sec)
Calculating Nuclear repulsion               ... done (  0.0 sec) ENN=     26.415769540376 Eh

SHARK setup successfully completed in   0.2 seconds

Maximum memory used throughout the entire GTOINT-calculation: 14.0 MB
-------------------------------------------------------------------------------
                                 ORCA SCF
-------------------------------------------------------------------------------

------------
SCF SETTINGS
------------
Hamiltonian:
 Density Functional     Method          .... DFT(GTOs)
 Exchange Functional    Exchange        .... PBE
   PBE kappa parameter   XKappa         ....  0.804000
   PBE mue parameter    XMuePBE         ....  0.219520
 Correlation Functional Correlation     .... PBE
   PBE beta parameter  CBetaPBE         ....  0.066725
 LDA part of GGA corr.  LDAOpt          .... PW91-LDA
 Gradients option       PostSCFGGA      .... off
 Hybrid DFT is turned on
   Fraction HF Exchange ScalHFX         ....  0.250000
   Scaling of DF-GGA-X  ScalDFX         ....  0.750000
   Scaling of DF-GGA-C  ScalDFC         ....  1.000000
   Scaling of DF-LDA-C  ScalLDAC        ....  1.000000
   Perturbative correction              ....  0.000000
   Density functional embedding theory  .... OFF
   NL short-range parameter             ....  6.900000
 RI-approximation to the Coulomb term is turned on
   Number of AuxJ basis functions       .... 109
   RIJ-COSX (HFX calculated with COS-X)).... on


General Settings:
 Integral files         IntName         .... input
 Hartree-Fock type      HFTyp           .... RHF
 Total Charge           Charge          ....    0
 Multiplicity           Mult            ....    1
 Number of Electrons    NEL             ....   14
 Basis Dimension        Dim             ....   68
 Nuclear Repulsion      ENuc            ....     26.4157695404 Eh

Convergence Acceleration:
 DIIS                   CNVDIIS         .... on
   Start iteration      DIISMaxIt       ....    12
   Startup error        DIISStart       ....  0.200000
   # of expansion vecs  DIISMaxEq       ....     5
   Bias factor          DIISBfac        ....   1.050
   Max. coefficient     DIISMaxC        ....  10.000
 Trust-Rad. Augm. Hess. CNVTRAH         .... auto
   Auto Start mean grad. ratio tolernc. ....  1.125000
   Auto Start start iteration           ....    20
   Auto Start num. interpolation iter.  ....    10
   Max. Number of Micro iterations      ....    16
   Max. Number of Macro iterations      .... Maxiter - #DIIS iter
   Number of Davidson start vectors     ....     2
   Converg. threshold I  (grad. norm)   ....   1.000e-05
   Converg. threshold II (energy diff.) ....   1.000e-08
   Grad. Scal. Fac. for Micro threshold ....   0.100
   Minimum threshold for Micro iter.    ....   0.010
   NR start threshold (gradient norm)   ....   0.001
   Initial trust radius                 ....   0.400
   Minimum AH scaling param. (alpha)    ....   1.000
   Maximum AH scaling param. (alpha)    .... 1000.000
   Orbital update algorithm             .... Taylor
   White noise on init. David. guess    .... on
   Maximum white noise                  ....   0.010
   Quad. conv. algorithm                .... NR
 SOSCF                  CNVSOSCF        .... on
   Start iteration      SOSCFMaxIt      ....   150
   Startup grad/error   SOSCFStart      ....  0.003300
 Level Shifting         CNVShift        .... on
   Level shift para.    LevelShift      ....    0.2500
   Turn off err/grad.   ShiftErr        ....    0.0010
 Zerner damping         CNVZerner       .... off
 Static damping         CNVDamp         .... on
   Fraction old density DampFac         ....    0.7000
   Max. Damping (<1)    DampMax         ....    0.9800
   Min. Damping (>=0)   DampMin         ....    0.0000
   Turn off err/grad.   DampErr         ....    0.1000
 Fernandez-Rico         CNVRico         .... off

SCF Procedure:
 Maximum # iterations   MaxIter         ....   125
 SCF integral mode      SCFMode         .... Direct
   Integral package                     .... SHARK and LIBINT hybrid scheme
 Reset frequency        DirectResetFreq ....    20
 Integral Threshold     Thresh          ....  2.500e-11 Eh
 Primitive CutOff       TCut            ....  2.500e-12 Eh

Convergence Tolerance:
 Convergence Check Mode ConvCheckMode   .... Total+1el-Energy
 Convergence forced     ConvForced      .... 0
 Energy Change          TolE            ....  1.000e-08 Eh
 1-El. energy change                    ....  1.000e-05 Eh
 Orbital Gradient       TolG            ....  1.000e-05
 Orbital Rotation angle TolX            ....  1.000e-05
 DIIS Error             TolErr          ....  5.000e-07


Diagonalization of the overlap matrix:
Smallest eigenvalue                        ... 6.032e-04
Time for diagonalization                   ...    0.001 sec
Threshold for overlap eigenvalues          ... 1.000e-08
Number of eigenvalues below threshold      ... 0
Time for construction of square roots      ...    0.000 sec
Total time needed                          ...    0.001 sec

Time for model grid setup =    0.028 sec

------------------------------
INITIAL GUESS: MODEL POTENTIAL
------------------------------
Loading Hartree-Fock densities                     ... done
Calculating cut-offs                               ... done
Initializing the effective Hamiltonian             ... done
Setting up the integral package (SHARK)            ... done
Starting the Coulomb interaction                   ... done (   0.0 sec)
Reading the grid                                   ... done
Mapping shells                                     ... done
Starting the XC term evaluation                    ... done (   0.0 sec)
  promolecular density results
     # of electrons  =     13.999174502
     EX              =    -11.932393288
     EC              =     -0.443678853
     EX+EC           =    -12.376072141
Transforming the Hamiltonian                       ... done (   0.0 sec)
Diagonalizing the Hamiltonian                      ... done (   0.0 sec)
Back transforming the eigenvectors                 ... done (   0.0 sec)
Now organizing SCF variables                       ... done
                      ------------------
                      INITIAL GUESS DONE (   0.1 sec)
                      ------------------
-------------------
DFT GRID GENERATION
-------------------

General Integration Accuracy     IntAcc      ... 4.388
Radial Grid Type                 RadialGrid  ... OptM3 with GC (2021)
Angular Grid (max. ang.)         AngularGrid ... 4 (Lebedev-302)
Angular grid pruning method      GridPruning ... 4 (adaptive)
Weight generation scheme         WeightScheme... Becke
Basis function cutoff            BFCut       ... 1.0000e-11
Integration weight cutoff        WCut        ... 1.0000e-14
Angular grids for H and He will be reduced by one unit
Partially contracted basis set               ... off
Rotationally invariant grid construction     ... off

Total number of grid points                  ...    15547
Total number of batches                      ...      244
Average number of points per batch           ...       63
Average number of grid points per atom       ...     5182
Time for grid setup =    0.129 sec

--------------------
COSX GRID GENERATION
--------------------

GRIDX 1
-------
General Integration Accuracy     IntAcc      ... 3.816
Radial Grid Type                 RadialGrid  ... OptM3 with GC (2021)
Angular Grid (max. ang.)         AngularGrid ... 1 (Lebedev-50)
Angular grid pruning method      GridPruning ... 4 (adaptive)
Weight generation scheme         WeightScheme... Becke
Basis function cutoff            BFCut       ... 1.0000e-11
Integration weight cutoff        WCut        ... 1.0000e-14
Angular grids for H and He will be reduced by one unit
Partially contracted basis set               ... on
Rotationally invariant grid construction     ... off

Total number of grid points                  ...     1970
Total number of batches                      ...       32
Average number of points per batch           ...       61
Average number of grid points per atom       ...      657
UseSFitting                                  ... on

GRIDX 2
-------
General Integration Accuracy     IntAcc      ... 4.020
Radial Grid Type                 RadialGrid  ... OptM3 with GC (2021)
Angular Grid (max. ang.)         AngularGrid ... 2 (Lebedev-110)
Angular grid pruning method      GridPruning ... 4 (adaptive)
Weight generation scheme         WeightScheme... Becke
Basis function cutoff            BFCut       ... 1.0000e-11
Integration weight cutoff        WCut        ... 1.0000e-14
Angular grids for H and He will be reduced by one unit
Partially contracted basis set               ... on
Rotationally invariant grid construction     ... off

Total number of grid points                  ...     4572
Total number of batches                      ...       73
Average number of points per batch           ...       62
Average number of grid points per atom       ...     1524
UseSFitting                                  ... on

GRIDX 3
-------
General Integration Accuracy     IntAcc      ... 4.338
Radial Grid Type                 RadialGrid  ... OptM3 with GC (2021)
Angular Grid (max. ang.)         AngularGrid ... 3 (Lebedev-194)
Angular grid pruning method      GridPruning ... 4 (adaptive)
Weight generation scheme         WeightScheme... Becke
Basis function cutoff            BFCut       ... 1.0000e-11
Integration weight cutoff        WCut        ... 1.0000e-14
Angular grids for H and He will be reduced by one unit
Partially contracted basis set               ... on
Rotationally invariant grid construction     ... off

Total number of grid points                  ...    10199
Total number of batches                      ...      160
Average number of points per batch           ...       63
Average number of grid points per atom       ...     3400
UseSFitting                                  ... on

Time for X-Grid setup             =    0.129 sec

--------------
SCF ITERATIONS
--------------
ITER       Energy         Delta-E        Max-DP      RMS-DP      [F,P]     Damp
               ***  Starting incremental Fock matrix formation  ***
  0    -93.1251569232   0.000000000000 0.02761733  0.00132596  0.1115239 0.7000
  1    -93.1403914780  -0.015234554819 0.02726987  0.00104711  0.0653301 0.7000
                               ***Turning on DIIS***
  2    -93.1484205967  -0.008029118715 0.05928701  0.00210439  0.0350948 0.0000
  3    -93.1609250772  -0.012504480410 0.01706554  0.00068380  0.0256926 0.0000
  4    -93.1628446906  -0.001919613414 0.00582445  0.00020390  0.0042708 0.0000
                      *** Initiating the SOSCF procedure ***
                           *** Shutting down DIIS ***
                      *** Re-Reading the Fockian *** 
                      *** Removing any level shift *** 
ITER      Energy       Delta-E        Grad      Rot      Max-DP    RMS-DP
  5    -93.16289871  -0.0000540211  0.000685  0.000685  0.001559  0.000064
               *** Restarting incremental Fock matrix formation ***
  6    -93.16288761   0.0000111036  0.000202  0.000631  0.000644  0.000035
  7    -93.16288773  -0.0000001171  0.000316  0.000363  0.000224  0.000014
  8    -93.16288812  -0.0000003924  0.000085  0.000120  0.000184  0.000009
  9    -93.16288816  -0.0000000455  0.000023  0.000038  0.000037  0.000002
 10    -93.16288817  -0.0000000091  0.000005  0.000008  0.000018  0.000001
                 **** Energy Check signals convergence ****
              ***Rediagonalizing the Fockian in SOSCF/NRSCF***

               *****************************************************
               *                     SUCCESS                       *
               *           SCF CONVERGED AFTER  11 CYCLES          *
               *****************************************************

Old exchange energy                            =     -3.040400243 Eh
New exchange energy                            =     -3.040403841 Eh
Exchange energy change after final integration =     -0.000003598 Eh
Total energy after final integration           =    -93.162891770 Eh
Final COS-X integration done in                =     0.759 sec

----------------
TOTAL SCF ENERGY
----------------

Total Energy       :          -93.16289177 Eh           -2535.09117 eV

Components:
Nuclear Repulsion  :           26.41576954 Eh             718.80963 eV
Electronic Energy  :         -119.57866131 Eh           -3253.90080 eV
One Electron Energy:         -176.74805443 Eh           -4809.55907 eV
Two Electron Energy:           57.16939312 Eh            1555.65827 eV
Max COSX asymmetry :            0.00000124 Eh               0.00003 eV

Virial components:
Potential Energy   :         -186.76399237 Eh           -5082.10660 eV
Kinetic Energy     :           93.60110060 Eh            2547.01543 eV
Virial Ratio       :            1.99531834


DFT components:
N(Alpha)           :        7.000000905183 electrons
N(Beta)            :        7.000000905183 electrons
N(Total)           :       14.000001810365 electrons
E(X)               :       -9.113845008289 Eh       
E(C)               :       -0.449096016880 Eh       
E(XC)              :       -9.562941025169 Eh       
DFET-embed. en.    :        0.000000000000 Eh       

---------------
SCF CONVERGENCE
---------------

  Last Energy change         ...   -2.4093e-10  Tolerance :   1.0000e-08
  Last MAX-Density change    ...    3.3307e-16  Tolerance :   1.0000e-07
  Last RMS-Density change    ...    1.6076e-17  Tolerance :   5.0000e-09
  Last Orbital Gradient      ...    1.0300e-06  Tolerance :   1.0000e-05
  Last Orbital Rotation      ...    1.4111e-06  Tolerance :   1.0000e-05

             **** THE GBW FILE WAS UPDATED (input.gbw) ****
             **** DENSITY input.scfp WAS UPDATED ****
             **** ENERGY FILE WAS UPDATED (input.en.tmp) ****
             **** THE GBW FILE WAS UPDATED (input.gbw) ****
             **** DENSITY input.scfp WAS UPDATED ****
----------------
ORBITAL ENERGIES
----------------

  NO   OCC          E(Eh)            E(eV) 
   0   2.0000     -14.472610      -393.8197 
   1   2.0000     -10.285493      -279.8825 
   2   2.0000      -1.138783       -30.9878 
   3   2.0000      -0.594193       -16.1688 
   4   2.0000      -0.488496       -13.2926 
   5   2.0000      -0.440589       -11.9890 
   6   2.0000      -0.366593        -9.9755 
   7   0.0000      -0.046981        -1.2784 
   8   0.0000       0.002306         0.0628 
   9   0.0000       0.102544         2.7904 
  10   0.0000       0.163894         4.4598 
  11   0.0000       0.205827         5.6008 
  12   0.0000       0.221724         6.0334 
  13   0.0000       0.224265         6.1026 
  14   0.0000       0.302937         8.2433 
  15   0.0000       0.406420        11.0592 
  16   0.0000       0.412672        11.2294 
  17   0.0000       0.507981        13.8229 
  18   0.0000       0.537245        14.6192 
  19   0.0000       0.583642        15.8817 
  20   0.0000       0.669165        18.2089 
  21   0.0000       0.772954        21.0331 
  22   0.0000       0.840497        22.8711 
  23   0.0000       0.933344        25.3976 
  24   0.0000       1.095208        29.8021 
  25   0.0000       1.123346        30.5678 
  26   0.0000       1.177050        32.0292 
  27   0.0000       1.243144        33.8277 
  28   0.0000       1.314452        35.7681 
  29   0.0000       1.387814        37.7643 
  30   0.0000       1.449990        39.4562 
  31   0.0000       1.483656        40.3723 
  32   0.0000       1.506111        40.9834 
  33   0.0000       1.802905        49.0595 
  34   0.0000       1.909711        51.9659 
  35   0.0000       1.920214        52.2517 
  36   0.0000       2.102148        57.2023 
  37   0.0000       2.155071        58.6425 
  38   0.0000       2.181832        59.3707 
  39   0.0000       2.536748        69.0284 
  40   0.0000       2.667785        72.5941 
  41   0.0000       2.769136        75.3520 
  42   0.0000       2.773071        75.4591 
  43   0.0000       2.881569        78.4115 
  44   0.0000       2.947335        80.2011 
  45   0.0000       3.049449        82.9797 
  46   0.0000       3.159245        85.9674 
  47   0.0000       3.298729        89.7630 
  48   0.0000       3.316235        90.2393 
  49   0.0000       3.367752        91.6412 
  50   0.0000       3.413211        92.8782 
  51   0.0000       3.444175        93.7208 
  52   0.0000       3.883031       105.6627 
  53   0.0000       4.031455       109.7015 
  54   0.0000       4.140484       112.6683 
  55   0.0000       4.359152       118.6186 
  56   0.0000       4.537224       123.4642 
  57   0.0000       4.544079       123.6507 
  58   0.0000       4.657329       126.7324 
  59   0.0000       4.798845       130.5832 
  60   0.0000       4.815638       131.0402 
  61   0.0000       5.181343       140.9915 
  62   0.0000       5.334502       145.1592 
  63   0.0000       5.381170       146.4291 
  64   0.0000       5.489881       149.3873 
  65   0.0000       5.781972       157.3355 
  66   0.0000      22.100136       601.3753 
  67   0.0000      31.862312       867.0176 

                    ********************************
                    * MULLIKEN POPULATION ANALYSIS *
                    ********************************

-----------------------
MULLIKEN ATOMIC CHARGES
-----------------------
   0 N :    0.079153
   1 C :   -0.270659
   2 H :    0.191506
Sum of atomic charges:    0.0000000

--------------------------------
MULLIKEN REDUCED ORBITAL CHARGES
--------------------------------
  0 N s       :     3.702370  s :     3.702370
      pz      :     1.160260  p :     3.157505
      px      :     0.802128
      py      :     1.195117
      dz2     :     0.016486  d :     0.057920
      dxz     :     0.008365
      dyz     :     0.006655
      dx2y2   :     0.012291
      dxy     :     0.014123
      f0      :     0.000159  f :     0.003052
      f+1     :     0.000738
      f-1     :     0.000082
      f+2     :     0.000098
      f-2     :     0.000464
      f+3     :     0.000766
      f-3     :     0.000746
  1 C s       :     3.756517  s :     3.756517
      pz      :     0.749272  p :     2.394692
      px      :     0.932060
      py      :     0.713361
      dz2     :     0.030870  d :     0.109104
      dxz     :     0.027857
      dyz     :     0.028697
      dx2y2   :     0.008237
      dxy     :     0.013443
      f0      :     0.003203  f :     0.010345
      f+1     :     0.001200
      f-1     :     0.001661
      f+2     :     0.000788
      f-2     :     0.002205
      f+3     :     0.000468
      f-3     :     0.000820
  2 H s       :     0.736359  s :     0.736359
      pz      :     0.016701  p :     0.072134
      px      :     0.033303
      py      :     0.022130


                     *******************************
                     * LOEWDIN POPULATION ANALYSIS *
                     *******************************

----------------------
LOEWDIN ATOMIC CHARGES
----------------------
   0 N :    0.196185
   1 C :   -0.210330
   2 H :    0.014144

-------------------------------
LOEWDIN REDUCED ORBITAL CHARGES
-------------------------------
  0 N s       :     3.270444  s :     3.270444
      pz      :     1.295539  p :     3.376993
      px      :     0.973223
      py      :     1.108230
      dz2     :     0.033644  d :     0.138184
      dxz     :     0.037408
      dyz     :     0.010293
      dx2y2   :     0.042032
      dxy     :     0.014807
      f0      :     0.001419  f :     0.018194
      f+1     :     0.006359
      f-1     :     0.000391
      f+2     :     0.003071
      f-2     :     0.002029
      f+3     :     0.003980
      f-3     :     0.000945
  1 C s       :     3.147959  s :     3.147959
      pz      :     0.966338  p :     2.717135
      px      :     1.044154
      py      :     0.706642
      dz2     :     0.082812  d :     0.289588
      dxz     :     0.102774
      dyz     :     0.040736
      dx2y2   :     0.029834
      dxy     :     0.033432
      f0      :     0.014803  f :     0.055648
      f+1     :     0.007283
      f-1     :     0.002737
      f+2     :     0.010425
      f-2     :     0.013438
      f+3     :     0.002882
      f-3     :     0.004080
  2 H s       :     0.743036  s :     0.743036
      pz      :     0.066301  p :     0.242819
      px      :     0.113162
      py      :     0.063357


                      *****************************
                      * MAYER POPULATION ANALYSIS *
                      *****************************

  NA   - Mulliken gross atomic population
  ZA   - Total nuclear charge
  QA   - Mulliken gross atomic charge
  VA   - Mayer's total valence
  BVA  - Mayer's bonded valence
  FA   - Mayer's free valence

  ATOM       NA         ZA         QA         VA         BVA        FA
  0 N      6.9208     7.0000     0.0792     2.6217     2.6217     0.0000
  1 C      6.2707     6.0000    -0.2707     2.8442     2.8442     0.0000
  2 H      0.8085     1.0000     0.1915     1.0829     1.0829    -0.0000

  Mayer bond orders larger than 0.100000
B(  0-N ,  1-C ) :   2.1915 B(  0-N ,  2-H ) :   0.4302 B(  1-C ,  2-H ) :   0.6527 


-------
TIMINGS
-------

Total SCF time: 0 days 0 hours 0 min 6 sec 

Total time                  ....       6.894 sec
Sum of individual times     ....       6.769 sec  ( 98.2%)

Fock matrix formation       ....       6.418 sec  ( 93.1%)
  Split-RI-J                ....       0.448 sec  (  7.0% of F)
  Chain of spheres X        ....       4.255 sec  ( 66.3% of F)
  XC integration            ....       1.713 sec  ( 26.7% of F)
    Basis function eval.    ....       0.536 sec  ( 31.3% of XC)
    Density eval.           ....       0.366 sec  ( 21.4% of XC)
    XC-Functional eval.     ....       0.296 sec  ( 17.3% of XC)
    XC-Potential eval.      ....       0.427 sec  ( 24.9% of XC)
Diagonalization             ....       0.007 sec  (  0.1%)
Density matrix formation    ....       0.001 sec  (  0.0%)
Population analysis         ....       0.003 sec  (  0.0%)
Initial guess               ....       0.051 sec  (  0.7%)
Orbital Transformation      ....       0.000 sec  (  0.0%)
Orbital Orthonormalization  ....       0.000 sec  (  0.0%)
DIIS solution               ....       0.002 sec  (  0.0%)
SOSCF solution              ....       0.003 sec  (  0.0%)
Grid generation             ....       0.285 sec  (  4.1%)

Maximum memory used throughout the entire SCF-calculation: 64.4 MB

-------------------------   --------------------
FINAL SINGLE POINT ENERGY       -93.162891770185
-------------------------   --------------------

------------------------------------------------------------------------------
                         ORCA SCF GRADIENT CALCULATION
------------------------------------------------------------------------------

 ... reading COSX grid (gridx3)
Gradient of the Kohn-Sham DFT energy:
Kohn-Sham wavefunction type      ... RKS
Hartree-Fock exchange scaling    ...    0.250
Number of operators              ...    1
Number of atoms                  ...    3
Basis set dimensions             ...   68
Integral neglect threshold       ... 2.5e-11
Integral primitive cutoff        ... 2.5e-12
SHARK Integral package           ... ON

Nuc. rep. gradient       (SHARK) ... done (  0.0 sec)
HCore & Overlap gradient (SHARK) ... done (  0.0 sec)
RI-J gradient            (SHARK) ... done (  0.2 sec)
COSX-gradient                    ... done (  0.9 sec)
Exchange-correlation gradient    ... done

------------------
CARTESIAN GRADIENT
------------------

   1   N   :   -0.092601261    0.004590011   -0.005197703
   2   C   :   -0.105010734    0.005235365    0.378177128
   3   H   :    0.197619199   -0.009829982   -0.372969589

Difference to translation invariance:
           :    0.0000072035   -0.0000046056    0.0000098366

Difference to rotation invariance:
           :    0.0000050160    0.0000220423    0.0000029961

Norm of the cartesian gradient     ...    0.5839109283
RMS gradient                       ...    0.1946369761
MAX gradient                       ...    0.3781771282

-------
TIMINGS
-------

Total SCF gradient time            ...        1.863 sec

One electron gradient       ....       0.014 sec  (  0.7%)
RI-J Coulomb gradient       ....       0.200 sec  ( 10.7%)
COSX gradient               ....       0.884 sec  ( 47.5%)
XC gradient                 ....       0.536 sec  ( 28.8%)

Maximum memory used throughout the entire SCFGRAD-calculation: 39.4 MB

                            ***************************************
                            *     ORCA property calculations      *
                            ***************************************

                                    ---------------------
                                    Active property flags
                                    ---------------------
   (+) Dipole Moment
   (+) Chemical Shifts
   (+) Nuclear properties (Hyperfine,Quadrupole)


------------------------------------------------------------------------------
                       ORCA ELECTRIC PROPERTIES CALCULATION
------------------------------------------------------------------------------

Dipole Moment Calculation                       ... on
Quadrupole Moment Calculation                   ... off
Polarizability Calculation                      ... off
GBWName                                         ... input.gbw
Electron density                                ... input.scfp
The origin for moment calculation is the CENTER OF MASS  = (-2.669572,  1.853465 -0.689505)

-------------
DIPOLE MOMENT
-------------
                                X             Y             Z
Electronic contribution:      0.50889      -0.02523      -0.10501
Nuclear contribution   :     -0.61285       0.03041       0.34432
                        -----------------------------------------
Total Dipole Moment    :     -0.10397       0.00518       0.23932
                        -----------------------------------------
Magnitude (a.u.)       :      0.26097
Magnitude (Debye)      :      0.66334



--------------------
Rotational spectrum 
--------------------
 
Rotational constants in cm-1:    30.978373     1.936629     1.822683 
Rotational constants in MHz : 928708.255049 58058.665620 54642.652595 

 Dipole components along the rotational axes: 
x,y,z [a.u.] :    -0.091839     0.244281     0.000002 
x,y,z [Debye]:    -0.233436     0.620913     0.000006 

 
------------------------------------------------------------------------------
                                ORCA EPR/NMR CALCULATION
------------------------------------------------------------------------------

GBWName                      ... input.gbw
Electron density             ... input.scfp
Spin density                 ... input.scfr
Treatment of gauge           ... GIAO (approximations 1/2el = 0,0)
Details of the CP(SCF) procedure:
       Solver   = POPLE   
       MaxIter  =    64   
       Tolerance=    1.000e-04
       COSX Grid=     1   
       Op-0     =   0-  6 =>   7- 67
Multiplicity                 ... 1
g-tensor                     ... 0
NMR chemical shifts          ... 1
NMR spin-spin couplings      ... 0
NMR spectrum                 ... 0
Number of nuclei for epr/nmr ... 3
   Nucleus:   0N 
       Hyperfine : Isotope=   14 I=   1.000 P=  38.568
       Quadrupole: Isotope=   14 I=   1.000 Q=   0.020
       Spin-Orbit: Zeff=   4.550
       Nuclear Spin-Spin: Gn=   0.000
       EPRNMR Input: 
       rho(0)=N f(grad)=N a(iso)=N a(dip)=N a(orb)=N sigma(nmr)=Y spin-spin(nmr)=all-N,DSO-N,PSO-N,FC-N,SD-N
   Nucleus:   1C 
       Hyperfine : Isotope=   13 I=   0.500 P= 134.190
       Quadrupole: Isotope=   13 I=   0.500 Q=   0.000
       Spin-Orbit: Zeff=   3.600
       Nuclear Spin-Spin: Gn=   0.000
       EPRNMR Input: 
       rho(0)=N f(grad)=N a(iso)=N a(dip)=N a(orb)=N sigma(nmr)=Y spin-spin(nmr)=all-N,DSO-N,PSO-N,FC-N,SD-N
   Nucleus:   2H 
       Hyperfine : Isotope=    1 I=   0.500 P= 533.551
       Quadrupole: Isotope=    2 I=   1.000 Q=   0.003
       Spin-Orbit: Zeff=   1.000
       Nuclear Spin-Spin: Gn=   0.000
       EPRNMR Input: 
       rho(0)=N f(grad)=N a(iso)=N a(dip)=N a(orb)=N sigma(nmr)=Y spin-spin(nmr)=all-N,DSO-N,PSO-N,FC-N,SD-N
Forming RHS of the CP-SCF equations         ... 
Calculating right hand sides for GIAO treatment        ... 
  Entering RightHandSide GIAO. ScalHFX=    0.2500 NeedHFX=1
     -> 1-electron GIAO integrals will be done analytically
     -> RIJCOSX used in SCF. Same chosen for GIAO calculation.
     Making grid for GIAO integrations   ...

GRID GIAO
---------

General Integration Accuracy     IntAcc      ... 4.388
Radial Grid Type                 RadialGrid  ... OptM3 with GC (2021)
Angular Grid (max. ang.)         AngularGrid ... 4 (Lebedev-302)
Angular grid pruning method      GridPruning ... 4 (adaptive)
Weight generation scheme         WeightScheme... Becke
Basis function cutoff            BFCut       ... 1.0000e-11
Integration weight cutoff        WCut        ... 1.0000e-14
Angular grids for H and He will be reduced by one unit
Partially contracted basis set               ... off
Rotationally invariant grid construction     ... off

Total number of grid points                  ...    15547
Total number of batches                      ...      244
Average number of points per batch           ...       63
Average number of grid points per atom       ...     5182

  One-electron GIAO integrals (SHARK)     ... done
  Calculating G(B)[P]                     ... (RI-J: SHARK-ok) (COSX-ok) (add-J+K:ok) => dG/dB done
  DFT XC-terms                            ... done
  Extracting occupied and virtual blocks  ... 
  Operator  0  NO=   7 NV=  61 
  Transforming and RHS contribution       ... done
  Adding eps_i * S(B)_ai terms            ... done
  Projecting overlap derivatives          ... done
  Building G[dS/dB_ij] (COSX)             ... done
  Transforming to MO basis                ... done
  Summing G[dS/dB_ij] into RHS contribs.  ... done

  GIAO profiling information: 
    Total GIAO time               ...       1.8 sec
       GIAO 1-electron integrals  ...       0.0 sec (  0.3%)
       GIAO G(dS/dB) terms        ...       0.1 sec (  8.0%)
       GIAO RI-J                  ...       0.1 sec (  7.7%)
       GIAO COSX                  ...       0.5 sec ( 28.5%)
       GIAO XC-terms              ...       0.9 sec ( 47.7%)

  GIAO right hand side done


------------------------------------------------------------------------------
                           ORCA CP-SCF CALCULATION
------------------------------------------------------------------------------

Input orbitals are from        ... input.gbw
Input Perturbation             ... input.pin.tmp
Wavefunction output            ... input.pout.tmp
Perturbation mode              ... Imaginary perturbation
Solver                         ... POPLE
Max. number of iterations      ... 64
Convergence tolerance          ... 1.000e-04
Integral handling              ... Direct
DFT GridXC                     ... 1
COSX GridX                     ... 1
COSX IntAccX                   ... 3.067
COSX Algorithm                 ... Auto
Number of perturbations        ... 3
Number of operators            ... 1
Orbital ranges used for CP-SCF:
 Operator 0:  Orbitals   0...  6  to   7... 67
Variables per perturbation     ... 427
DFT calculation                         ... on
XC functional terms                     ... off
Hybrid DFT                              ... on
   Exchange mixing (SCF)                ...  0.250
   Exchange mixing (CP-SCF)             ...  0.250
   GGA exch. scaling(SCF)               ...  0.750
   GGA exch. scaling (CP-SCF)           ...  0.750
   GGA corr. scaling (SCF)              ...  1.000
   GGA corr. scaling (CP-SCF)           ...  1.000

CP-SCF GRID
-----------

General Integration Accuracy     IntAcc      ... 3.467
Radial Grid Type                 RadialGrid  ... OptM3 with GC (2021)
Angular Grid (max. ang.)         AngularGrid ... 1 (Lebedev-50)
Angular grid pruning method      GridPruning ... 4 (adaptive)
Weight generation scheme         WeightScheme... Becke
Basis function cutoff            BFCut       ... 1.0000e-11
Integration weight cutoff        WCut        ... 1.0000e-14
Angular grids for H and He will be reduced by one unit
Partially contracted basis set               ... off
Rotationally invariant grid construction     ... off

Total number of grid points                  ...     2354
Total number of batches                      ...       38
Average number of points per batch           ...       61
Average number of grid points per atom       ...      785

CP-SCF GRIDX
------------

General Integration Accuracy     IntAcc      ... 3.067
Radial Grid Type                 RadialGrid  ... OptM3 with GC (2021)
Angular Grid (max. ang.)         AngularGrid ... 1 (Lebedev-50)
Angular grid pruning method      GridPruning ... 4 (adaptive)
Weight generation scheme         WeightScheme... Becke
Basis function cutoff            BFCut       ... 1.0000e-11
Integration weight cutoff        WCut        ... 1.0000e-14
Angular grids for H and He will be reduced by one unit
Partially contracted basis set               ... on
Rotationally invariant grid construction     ... off

Total number of grid points                  ...     1048
Total number of batches                      ...       18
Average number of points per batch           ...       58
Average number of grid points per atom       ...      349

Memory available               ... 1004.2 MB
Memory needed per perturbation ...   0.6 MB
Perturbations treated per batch... 3
Number of batches              ... 1
     CP-SCF ITERATION   0:   4.3092e-01 (   0.1 sec   0/  3 done)
     CP-SCF ITERATION   1:   1.1321e-02 (   0.1 sec   0/  3 done)
     CP-SCF ITERATION   2:   7.6907e-04 (   0.1 sec   0/  3 done)
     CP-SCF ITERATION   3:   8.8449e-05 (   0.1 sec   3/  3 done)
                    *** THE CP-SCF HAS CONVERGED ***

Forming final perturbed densities           ... done
Transforming perturbed density to AO basis  ... done

Magnetic field perturbation calculated in  2.489 sec

---------------
CHEMICAL SHIFTS
---------------

Note: using conversion factor for au to ppm alpha^2/2 =   26.625677252 
GIAO: Analytic para- and diamagnetic shielding integrals (SHARK)       ...done
 --------------
 Nucleus   0N :
 --------------

Diamagnetic contribution to the shielding tensor (ppm) : 
           324.019        -11.368         5.637
            -1.306        298.203        -0.274
            11.222          2.748       327.459

Paramagnetic contribution to the shielding tensor (ppm): 
          -259.938        -14.160       253.941
           -24.254       -749.154       -12.536
           231.784        -14.756      -364.452

Total shielding tensor (ppm): 
            64.081        -25.528       259.578
           -25.560       -450.951       -12.809
           243.006        -12.008       -36.994


 Diagonalized sT*s matrix:
 
 sDSO           317.646          334.395          297.639  iso=     316.560
 sPSO          -525.063          -98.627         -749.854  iso=    -457.848
        ---------------  ---------------  ---------------
 Total         -207.417          235.768         -452.215  iso=    -141.288

 --------------
 Nucleus   1C :
 --------------

Diamagnetic contribution to the shielding tensor (ppm) : 
           265.006          1.516         5.357
            -0.092        263.008        -0.265
             7.047          5.946       266.640

Paramagnetic contribution to the shielding tensor (ppm): 
          -163.095        -11.869       198.545
           -10.269       -370.177        -9.830
           214.162        -16.892      -210.457

Total shielding tensor (ppm): 
           101.911        -10.354       203.903
           -10.361       -107.169       -10.095
           221.209        -10.946        56.183


 Diagonalized sT*s matrix:
 
 sDSO           263.082          260.059          271.514  iso=     264.885
 sPSO          -370.762         -393.558           20.591  iso=    -247.910
        ---------------  ---------------  ---------------
 Total         -107.681         -133.499          292.105  iso=      16.975

 --------------
 Nucleus   2H :
 --------------

Diamagnetic contribution to the shielding tensor (ppm) : 
            49.480        -12.366        -8.239
            -1.618         17.466         0.411
            -6.629         10.108        47.681

Paramagnetic contribution to the shielding tensor (ppm): 
            -4.667         13.417        20.521
             2.667         48.467        -1.023
             0.812         -9.825       -16.192

Total shielding tensor (ppm): 
            44.812          1.051        12.282
             1.049         65.933        -0.612
            -5.816          0.283        31.490


 Diagonalized sT*s matrix:
 
 sDSO            52.831           44.944           16.852  iso=      38.209
 sPSO           -21.889            0.364           49.134  iso=       9.203
        ---------------  ---------------  ---------------
 Total           30.942           45.308           65.985  iso=      47.412



--------------------------------
CHEMICAL SHIELDING SUMMARY (ppm)
--------------------------------


  Nucleus  Element    Isotropic     Anisotropy
  -------  -------  ------------   ------------
      0       N         -141.288       -466.391 
      1       C           16.975        412.695 
      2       H           47.412         27.860 



Maximum memory used throughout the entire EPRNMR-calculation: 21.9 MB

----------------------------------------------------------------------------
                           ORCA NUMERICAL FREQUENCIES
----------------------------------------------------------------------------

Number of atoms                ... 3
Central differences            ... used
Number of displacements        ... 18
Numerical increment            ... 5.000e-03 bohr
IR-spectrum generation         ... on
Raman-spectrum generation      ... off
Surface Crossing Hessian       ... off

The output will be reduced. Please look at the following files:
SCF program output             ... >input.lastscf
Integral program output        ... >input.lastint
Gradient program output        ... >input.lastgrad
Dipole moment program output   ... >input.lastmom
AutoCI program output          ... >input.lastautoci

	<< Calculating on displaced geometry   1 (of  18) >>
	<< Calculating on displaced geometry   2 (of  18) >>
	<< Calculating on displaced geometry   3 (of  18) >>
	<< Calculating on displaced geometry   4 (of  18) >>
	<< Calculating on displaced geometry   5 (of  18) >>
	<< Calculating on displaced geometry   6 (of  18) >>
	<< Calculating on displaced geometry   7 (of  18) >>
	<< Calculating on displaced geometry   8 (of  18) >>
	<< Calculating on displaced geometry   9 (of  18) >>
	<< Calculating on displaced geometry  10 (of  18) >>
	<< Calculating on displaced geometry  11 (of  18) >>
	<< Calculating on displaced geometry  12 (of  18) >>
	<< Calculating on displaced geometry  13 (of  18) >>
	<< Calculating on displaced geometry  14 (of  18) >>
	<< Calculating on displaced geometry  15 (of  18) >>
	<< Calculating on displaced geometry  16 (of  18) >>
	<< Calculating on displaced geometry  17 (of  18) >>
	<< Calculating on displaced geometry  18 (of  18) >>

-----------------------
VIBRATIONAL FREQUENCIES
-----------------------

Scaling factor for frequencies =  1.000000000 (already applied!)

   0:         0.00 cm**-1
   1:         0.00 cm**-1
   2:         0.00 cm**-1
   3:         0.00 cm**-1
   4:         0.00 cm**-1
   5:         0.00 cm**-1
   6:     -1225.41 cm**-1 ***imaginary mode***
   7:      2253.69 cm**-1
   8:      5975.90 cm**-1


------------
NORMAL MODES
------------

These modes are the cartesian displacements weighted by the diagonal matrix
M(i,i)=1/sqrt(m[i]) where m[i] is the mass of the displaced atom
Thus, these vectors are normalized but *not* orthogonal

                  0          1          2          3          4          5    
      0       0.000000   0.000000   0.000000   0.000000   0.000000   0.000000
      1       0.000000   0.000000   0.000000   0.000000   0.000000   0.000000
      2       0.000000   0.000000   0.000000   0.000000   0.000000   0.000000
      3       0.000000   0.000000   0.000000   0.000000   0.000000   0.000000
      4       0.000000   0.000000   0.000000   0.000000   0.000000   0.000000
      5       0.000000   0.000000   0.000000   0.000000   0.000000   0.000000
      6       0.000000   0.000000   0.000000   0.000000   0.000000   0.000000
      7       0.000000   0.000000   0.000000   0.000000   0.000000   0.000000
      8       0.000000   0.000000   0.000000   0.000000   0.000000   0.000000
                  6          7          8    
      0       0.024647  -0.364347   0.006897
      1      -0.001227   0.018024  -0.000342
      2      -0.050123  -0.317940  -0.001339
      3       0.049831   0.379350   0.024330
      4      -0.002461  -0.018766  -0.001214
      5       0.086064   0.331745  -0.075561
      6      -0.936262   0.542690  -0.385745
      7       0.046366  -0.026847   0.019213
      8      -0.329007   0.465074   0.918956


-----------
IR SPECTRUM
-----------

 Mode   freq       eps      Int      T**2         TX        TY        TZ
       cm**-1   L/(mol*cm) km/mol    a.u.
----------------------------------------------------------------------------
  7:   2253.69   0.001505    7.61  0.000208  ( 0.005661 -0.000278  0.013279)
  8:   5975.90   0.023539  118.96  0.001229  (-0.032347  0.001612  0.013427)

* The epsilon (eps) is given for a Dirac delta lineshape.
** The dipole moment derivative (T) already includes vibrational overlap.

The first frequency considered to be a vibration is 7
The total number of vibrations considered is 2


--------------------------
THERMOCHEMISTRY AT 298.15K
--------------------------

Temperature         ... 298.15 K
Pressure            ... 1.00 atm
Total Mass          ... 27.03 AMU

Throughout the following assumptions are being made:
  (1) The electronic state is orbitally nondegenerate
  (2) There are no thermally accessible electronically excited states
  (3) Hindered rotations indicated by low frequency modes are not
      treated as such but are treated as vibrations and this may
      cause some error
  (4) All equations used are the standard statistical mechanics
      equations for an ideal gas
  (5) All vibrations are strictly harmonic

freq.    2253.69  E(vib)   ...       0.00 
freq.    5975.90  E(vib)   ...       0.00 

------------
INNER ENERGY
------------

The inner energy is: U= E(el) + E(ZPE) + E(vib) + E(rot) + E(trans)
    E(el)   - is the total energy from the electronic structure calculation
              = E(kin-el) + E(nuc-el) + E(el-el) + E(nuc-nuc)
    E(ZPE)  - the the zero temperature vibrational energy from the frequency calculation
    E(vib)  - the the finite temperature correction to E(ZPE) due to population
              of excited vibrational states
    E(rot)  - is the rotational thermal energy
    E(trans)- is the translational thermal energy

Summary of contributions to the inner energy U:
Electronic energy                ...    -93.16289177 Eh
Zero point energy                ...      0.01874837 Eh      11.76 kcal/mol
Thermal vibrational correction   ...      0.00000019 Eh       0.00 kcal/mol
Thermal rotational correction    ...      0.00141627 Eh       0.89 kcal/mol
Thermal translational correction ...      0.00141627 Eh       0.89 kcal/mol
-----------------------------------------------------------------------
Total thermal energy                    -93.14131066 Eh


Summary of corrections to the electronic energy:
(perhaps to be used in another calculation)
Total thermal correction                  0.00283274 Eh       1.78 kcal/mol
Non-thermal (ZPE) correction              0.01874837 Eh      11.76 kcal/mol
-----------------------------------------------------------------------
Total correction                          0.02158111 Eh      13.54 kcal/mol


--------
ENTHALPY
--------

The enthalpy is H = U + kB*T
                kB is Boltzmann's constant
Total free energy                 ...    -93.14131066 Eh 
Thermal Enthalpy correction       ...      0.00094421 Eh       0.59 kcal/mol
-----------------------------------------------------------------------
Total Enthalpy                    ...    -93.14036645 Eh


Note: Rotational entropy computed according to Herzberg 
Infrared and Raman Spectra, Chapter V,1, Van Nostrand Reinhold, 1945 
Point Group:  Cs, Symmetry Number:   1  
Rotational constants in cm-1:    30.978373     1.936629     1.822683 

Vibrational entropy computed according to the QRRHO of S. Grimme
Chem.Eur.J. 2012 18 9955


-------
ENTROPY
-------

The entropy contributions are T*S = T*(S(el)+S(vib)+S(rot)+S(trans))
     S(el)   - electronic entropy
     S(vib)  - vibrational entropy
     S(rot)  - rotational entropy
     S(trans)- translational entropy
The entropies will be listed as multiplied by the temperature to get
units of energy

Electronic entropy                ...      0.00000000 Eh      0.00 kcal/mol
Vibrational entropy               ...      0.00000021 Eh      0.00 kcal/mol
Rotational entropy                ...      0.00729456 Eh      4.58 kcal/mol
Translational entropy             ...      0.01701823 Eh     10.68 kcal/mol
-----------------------------------------------------------------------
Final entropy term                ...      0.02431300 Eh     15.26 kcal/mol

In case the symmetry of your molecule has not been determined correctly
or in case you have a reason to use a different symmetry number we print 
out the resulting rotational entropy values for sn=1,12 :
 --------------------------------------------------------
|  sn= 1 | S(rot)=       0.00729456 Eh      4.58 kcal/mol|
|  sn= 2 | S(rot)=       0.00664010 Eh      4.17 kcal/mol|
|  sn= 3 | S(rot)=       0.00625727 Eh      3.93 kcal/mol|
|  sn= 4 | S(rot)=       0.00598565 Eh      3.76 kcal/mol|
|  sn= 5 | S(rot)=       0.00577496 Eh      3.62 kcal/mol|
|  sn= 6 | S(rot)=       0.00560281 Eh      3.52 kcal/mol|
|  sn= 7 | S(rot)=       0.00545727 Eh      3.42 kcal/mol|
|  sn= 8 | S(rot)=       0.00533119 Eh      3.35 kcal/mol|
|  sn= 9 | S(rot)=       0.00521998 Eh      3.28 kcal/mol|
|  sn=10 | S(rot)=       0.00512050 Eh      3.21 kcal/mol|
|  sn=11 | S(rot)=       0.00503051 Eh      3.16 kcal/mol|
|  sn=12 | S(rot)=       0.00494836 Eh      3.11 kcal/mol|
 --------------------------------------------------------


-------------------
GIBBS FREE ENERGY
-------------------

The Gibbs free energy is G = H - T*S

Total enthalpy                    ...    -93.14036645 Eh 
Total entropy correction          ...     -0.02431300 Eh    -15.26 kcal/mol
-----------------------------------------------------------------------
Final Gibbs free energy         ...    -93.16467946 Eh

For completeness - the Gibbs free energy minus the electronic energy
G-E(el)                           ...     -0.00178769 Eh     -1.12 kcal/mol



Timings for individual modules:

Sum of individual times         ...      209.734 sec (=   3.496 min)
GTO integral calculation        ...        0.384 sec (=   0.006 min)   0.2 %
SCF iterations                  ...       13.966 sec (=   0.233 min)   6.7 %
EPR/NMR calculation             ...        2.642 sec (=   0.044 min)   1.3 %
SCF Gradient evaluation         ...        3.902 sec (=   0.065 min)   1.9 %
Numerical frequency calculation ...      188.841 sec (=   3.147 min)  90.0 %
                             ****ORCA TERMINATED NORMALLY****
TOTAL RUN TIME: 0 days 0 hours 3 minutes 20 seconds 683 msec
