
                                 *****************
                                 * O   R   C   A *
                                 *****************

                                            #,                                       
                                            ###                                      
                                            ####                                     
                                            #####                                    
                                            ######                                   
                                           ########,                                 
                                     ,,################,,,,,                         
                               ,,#################################,,                 
                          ,,##########################################,,             
                       ,#########################################, ''#####,          
                    ,#############################################,,   '####,        
                  ,##################################################,,,,####,       
                ,###########''''           ''''###############################       
              ,#####''   ,,,,##########,,,,          '''####'''          '####       
            ,##' ,,,,###########################,,,                        '##       
           ' ,,###''''                  '''############,,,                           
         ,,##''                                '''############,,,,        ,,,,,,###''
      ,#''                                            '''#######################'''  
     '                                                          ''''####''''         
             ,#######,   #######,   ,#######,      ##                                
            ,#'     '#,  ##    ##  ,#'     '#,    #''#        ######   ,####,        
            ##       ##  ##   ,#'  ##            #'  '#       #        #'  '#        
            ##       ##  #######   ##           ,######,      #####,   #    #        
            '#,     ,#'  ##    ##  '#,     ,#' ,#      #,         ##   #,  ,#        
             '#######'   ##     ##  '#######'  #'      '#     #####' # '####'        



                  #######################################################
                  #                        -***-                        #
                  #          Department of theory and spectroscopy      #
                  #    Directorship and core code : Frank Neese         #
                  #        Max Planck Institute fuer Kohlenforschung    #
                  #                Kaiser Wilhelm Platz 1               #
                  #                 D-45470 Muelheim/Ruhr               #
                  #                      Germany                        #
                  #                                                     #
                  #                  All rights reserved                #
                  #                        -***-                        #
                  #######################################################


                         Program Version 5.0.3 -  RELEASE  -


 With contributions from (in alphabetic order):
   Daniel Aravena         : Magnetic Suceptibility
   Michael Atanasov       : Ab Initio Ligand Field Theory (pilot matlab implementation)
   Alexander A. Auer      : GIAO ZORA, VPT2 properties, NMR spectrum
   Ute Becker             : Parallelization
   Giovanni Bistoni       : ED, misc. LED, open-shell LED, HFLD
   Martin Brehm           : Molecular dynamics
   Dmytro Bykov           : SCF Hessian
   Vijay G. Chilkuri      : MRCI spin determinant printing, contributions to CSF-ICE
   Dipayan Datta          : RHF DLPNO-CCSD density
   Achintya Kumar Dutta   : EOM-CC, STEOM-CC
   Dmitry Ganyushin       : Spin-Orbit,Spin-Spin,Magnetic field MRCI
   Miquel Garcia          : C-PCM and meta-GGA Hessian, CC/C-PCM, Gaussian charge scheme
   Yang Guo               : DLPNO-NEVPT2, F12-NEVPT2, CIM, IAO-localization
   Andreas Hansen         : Spin unrestricted coupled pair/coupled cluster methods
   Benjamin Helmich-Paris : MC-RPA, TRAH-SCF, COSX integrals
   Lee Huntington         : MR-EOM, pCC
   Robert Izsak           : Overlap fitted RIJCOSX, COSX-SCS-MP3, EOM
   Marcus Kettner         : VPT2
   Christian Kollmar      : KDIIS, OOCD, Brueckner-CCSD(T), CCSD density, CASPT2, CASPT2-K
   Simone Kossmann        : Meta GGA functionals, TD-DFT gradient, OOMP2, MP2 Hessian
   Martin Krupicka        : Initial AUTO-CI
   Lucas Lang             : DCDCAS
   Marvin Lechner         : AUTO-CI (C++ implementation), FIC-MRCC
   Dagmar Lenk            : GEPOL surface, SMD
   Dimitrios Liakos       : Extrapolation schemes; Compound Job, initial MDCI parallelization
   Dimitrios Manganas     : Further ROCIS development; embedding schemes
   Dimitrios Pantazis     : SARC Basis sets
   Anastasios Papadopoulos: AUTO-CI, single reference methods and gradients
   Taras Petrenko         : DFT Hessian,TD-DFT gradient, ASA, ECA, R-Raman, ABS, FL, XAS/XES, NRVS
   Peter Pinski           : DLPNO-MP2, DLPNO-MP2 Gradient
   Christoph Reimann      : Effective Core Potentials
   Marius Retegan         : Local ZFS, SOC
   Christoph Riplinger    : Optimizer, TS searches, QM/MM, DLPNO-CCSD(T), (RO)-DLPNO pert. Triples
   Tobias Risthaus        : Range-separated hybrids, TD-DFT gradient, RPA, STAB
   Michael Roemelt        : Original ROCIS implementation
   Masaaki Saitow         : Open-shell DLPNO-CCSD energy and density
   Barbara Sandhoefer     : DKH picture change effects
   Avijit Sen             : IP-ROCIS
   Kantharuban Sivalingam : CASSCF convergence, NEVPT2, FIC-MRCI
   Bernardo de Souza      : ESD, SOC TD-DFT
   Georgi Stoychev        : AutoAux, RI-MP2 NMR, DLPNO-MP2 response
   Willem Van den Heuvel  : Paramagnetic NMR
   Boris Wezisla          : Elementary symmetry handling
   Frank Wennmohs         : Technical directorship


 We gratefully acknowledge several colleagues who have allowed us to
 interface, adapt or use parts of their codes:
   Stefan Grimme, W. Hujo, H. Kruse, P. Pracht,  : VdW corrections, initial TS optimization,
                  C. Bannwarth, S. Ehlert          DFT functionals, gCP, sTDA/sTD-DF
   Ed Valeev, F. Pavosevic, A. Kumar             : LibInt (2-el integral package), F12 methods
   Garnet Chan, S. Sharma, J. Yang, R. Olivares  : DMRG
   Ulf Ekstrom                                   : XCFun DFT Library
   Mihaly Kallay                                 : mrcc  (arbitrary order and MRCC methods)
   Jiri Pittner, Ondrej Demel                    : Mk-CCSD
   Frank Weinhold                                : gennbo (NPA and NBO analysis)
   Christopher J. Cramer and Donald G. Truhlar   : smd solvation model
   Lars Goerigk                                  : TD-DFT with DH, B97 family of functionals
   V. Asgeirsson, H. Jonsson                     : NEB implementation
   FAccTs GmbH                                   : IRC, NEB, NEB-TS, DLPNO-Multilevel, CI-OPT
                                                   MM, QMMM, 2- and 3-layer-ONIOM, Crystal-QMMM,
                                                   LR-CPCM, SF, NACMEs, symmetry and pop. for TD-DFT,
                                                   nearIR, NL-DFT gradient (VV10), updates on ESD,
                                                   ML-optimized integration grids
   S Lehtola, MJT Oliveira, MAL Marques          : LibXC Library
   Liviu Ungur et al                             : ANISO software


 Your calculation uses the libint2 library for the computation of 2-el integrals
 For citations please refer to: http://libint.valeyev.net

 Your ORCA version has been built with support for libXC version: 5.1.0
 For citations please refer to: https://tddft.org/programs/libxc/

 This ORCA versions uses:
   CBLAS   interface :  Fast vector & matrix operations
   LAPACKE interface :  Fast linear algebra routines
   Shared memory     :  Shared parallel matrices


SCAN-COORDS
================================================================================

----- Orbital basis set information -----
Your calculation utilizes the basis: def2-TZVP
   F. Weigend and R. Ahlrichs, Phys. Chem. Chem. Phys. 7, 3297 (2005).

----- AuxJ basis set information -----
Your calculation utilizes the auxiliary basis: def2/J
   F. Weigend, Phys. Chem. Chem. Phys. 8, 1057 (2006).

================================================================================
                                        WARNINGS
                       Please study these warnings very carefully!
================================================================================

WARNING: Gradients needed for Numerical Frequencies
  ===> : Setting RunTyp to EnGrad

WARNING: The environment variable RSH_COMMAND is not set!
  ===> : All Displacements for the Numerical Hessian or Gradient calculation
         will be started on localhost

INFO   : the flag for use of the SHARK integral package has been found!

================================================================================
                                       INPUT FILE
================================================================================
NAME = C2N2_30.inp
|  1> ! PAL5 PBE0 NumFreq
|  2> %method
|  3>         method DFT
|  4>         runtyp Energy
|  5> end
|  6> %basis
|  7>         basis "def2-TZVP"
|  8> end
|  9> %coords
| 10>         CTyp xyz
| 11>         Charge 0
| 12>         Mult 1
| 13>         Units Angs
| 14>         coords
| 15> 	#43.3
| 16> 	C      0.901162    0.213223   -0.028373
| 17> 	C      2.433052    0.225083   -0.148833
| 18> 	H      0.584926   -0.496702    0.739184
| 19> 	H      0.446745   -0.077433   -0.978195
| 20> 	H      0.532839    1.205037    0.243407
| 21> 	H      2.763812   -0.521759   -0.874150
| 22> 	H      2.781611    1.206533   -0.477840
| 23> 	H      2.892631   -0.000931    0.815945
| 24> 	end
| 25> end
| 26> %eprnmr
| 27>         NMRShielding 1
| 28>         Nuclei = all C {shift}
| 29>         Nuclei = all H {shift}
| 30> endd                         ****END OF INPUT****
================================================================================

                     *******************************
                     * Energy+Gradient Calculation *
                     *******************************

---------------------------------
CARTESIAN COORDINATES (ANGSTROEM)
---------------------------------
  C      0.901162    0.213223   -0.028373
  C      2.433052    0.225083   -0.148833
  H      0.584926   -0.496702    0.739184
  H      0.446745   -0.077433   -0.978195
  H      0.532839    1.205037    0.243407
  H      2.763812   -0.521759   -0.874150
  H      2.781611    1.206533   -0.477840
  H      2.892631   -0.000931    0.815945

----------------------------
CARTESIAN COORDINATES (A.U.)
----------------------------
  NO LB      ZA    FRAG     MASS         X           Y           Z
   0 C     6.0000    0    12.011    1.702949    0.402933   -0.053617
   1 C     6.0000    0    12.011    4.597802    0.425345   -0.281254
   2 H     1.0000    0     1.008    1.105350   -0.938631    1.396855
   3 H     1.0000    0     1.008    0.844226   -0.146327   -1.848521
   4 H     1.0000    0     1.008    1.006920    2.277190    0.459973
   5 H     1.0000    0     1.008    5.222848   -0.985982   -1.651904
   6 H     1.0000    0     1.008    5.256483    2.280017   -0.902987
   7 H     1.0000    0     1.008    5.466280   -0.001759    1.541913

--------------------------------
INTERNAL COORDINATES (ANGSTROEM)
--------------------------------
 C      0   0   0     0.000000000000     0.00000000     0.00000000
 C      1   0   0     1.536664648939     0.00000000     0.00000000
 H      1   2   0     1.092310606728   110.40855685     0.00000000
 H      1   2   3     1.092308359351   110.40241244   240.00052444
 H      1   2   3     1.092346653460   110.40376105   120.00167543
 H      2   1   3     1.092364362771   110.40327172    89.23802488
 H      2   1   3     1.092237650436   110.40662380   209.24152217
 H      2   1   3     1.092287404817   110.40203133   329.24498587

---------------------------
INTERNAL COORDINATES (A.U.)
---------------------------
 C      0   0   0     0.000000000000     0.00000000     0.00000000
 C      1   0   0     2.903875346174     0.00000000     0.00000000
 H      1   2   0     2.064167899893   110.40855685     0.00000000
 H      1   2   3     2.064163652967   110.40241244   240.00052444
 H      1   2   3     2.064236018345   110.40376105   120.00167543
 H      2   1   3     2.064269484093   110.40327172    89.23802488
 H      2   1   3     2.064030032482   110.40662380   209.24152217
 H      2   1   3     2.064124054635   110.40203133   329.24498587

---------------------
BASIS SET INFORMATION
---------------------
There are 2 groups of distinct atoms

 Group   1 Type C   : 11s6p2d1f contracted to 5s3p2d1f pattern {62111/411/11/1}
 Group   2 Type H   : 5s1p contracted to 3s1p pattern {311/1}

Atom   0C    basis set group =>   1
Atom   1C    basis set group =>   1
Atom   2H    basis set group =>   2
Atom   3H    basis set group =>   2
Atom   4H    basis set group =>   2
Atom   5H    basis set group =>   2
Atom   6H    basis set group =>   2
Atom   7H    basis set group =>   2
---------------------------------
AUXILIARY/J BASIS SET INFORMATION
---------------------------------
There are 2 groups of distinct atoms

 Group   1 Type C   : 12s5p4d2f1g contracted to 6s4p3d1f1g pattern {711111/2111/211/2/1}
 Group   2 Type H   : 5s2p1d contracted to 3s1p1d pattern {311/2/1}

Atom   0C    basis set group =>   1
Atom   1C    basis set group =>   1
Atom   2H    basis set group =>   2
Atom   3H    basis set group =>   2
Atom   4H    basis set group =>   2
Atom   5H    basis set group =>   2
Atom   6H    basis set group =>   2
Atom   7H    basis set group =>   2


           ************************************************************
           *        Program running with 5 parallel MPI-processes     *
           *              working on a common directory               *
           ************************************************************
------------------------------------------------------------------------------
                           ORCA GTO INTEGRAL CALCULATION
                           -- RI-GTO INTEGRALS CHOSEN --
------------------------------------------------------------------------------
------------------------------------------------------------------------------
                   ___                                                        
                  /   \      - P O W E R E D   B Y -                         
                 /     \                                                     
                 |  |  |   _    _      __       _____    __    __             
                 |  |  |  | |  | |    /  \     |  _  \  |  |  /  |          
                  \  \/   | |  | |   /    \    | | | |  |  | /  /          
                 / \  \   | |__| |  /  /\  \   | |_| |  |  |/  /          
                |  |  |   |  __  | /  /__\  \  |    /   |      \           
                |  |  |   | |  | | |   __   |  |    \   |  |\   \          
                \     /   | |  | | |  |  |  |  | |\  \  |  | \   \       
                 \___/    |_|  |_| |__|  |__|  |_| \__\ |__|  \__/        
                                                                              
                      - O R C A' S   B I G   F R I E N D -                    
                                      &                                       
                       - I N T E G R A L  F E E D E R -                       
                                                                              
 v1 FN, 2020, v2 2021                                                         
------------------------------------------------------------------------------


Reading SHARK input file C2N2_30.SHARKINP.tmp ... ok
----------------------
SHARK INTEGRAL PACKAGE
----------------------

Number of atoms                             ...      8
Number of basis functions                   ...     98
Number of shells                            ...     46
Maximum angular momentum                    ...      3
Integral batch strategy                     ... SHARK/LIBINT Hybrid
RI-J (if used) integral strategy            ... SPLIT-RIJ (Revised 2003 algorithm where possible)
Printlevel                                  ...      1
Contraction scheme used                     ... SEGMENTED contraction
Coulomb Range Separation                    ... NOT USED
Exchange Range Separation                   ... NOT USED
Finite Nucleus Model                        ... NOT USED
Auxiliary Coulomb fitting basis             ... AVAILABLE
   # of basis functions in Aux-J            ...    164
   # of shells in Aux-J                     ...     60
   Maximum angular momentum in Aux-J        ...      4
Auxiliary J/K fitting basis                 ... NOT available
Auxiliary Correlation fitting basis         ... NOT available
Auxiliary 'external' fitting basis          ... NOT available
Integral threshold                          ...     2.500000e-11
Primitive cut-off                           ...     2.500000e-12
Primitive pair pre-selection threshold      ...     2.500000e-12

Calculating pre-screening integrals         ... done (  0.0 sec) Dimension = 46
Organizing shell pair data                  ... done (  0.0 sec)
Shell pair information
Total number of shell pairs                 ...      1081
Shell pairs after pre-screening             ...      1080
Total number of primitive shell pairs       ...      2988
Primitive shell pairs kept                  ...      2664
          la=0 lb=0:    405 shell pairs
          la=1 lb=0:    336 shell pairs
          la=1 lb=1:     78 shell pairs
          la=2 lb=0:    112 shell pairs
          la=2 lb=1:     48 shell pairs
          la=2 lb=2:     10 shell pairs
          la=3 lb=0:     56 shell pairs
          la=3 lb=1:     24 shell pairs
          la=3 lb=2:      8 shell pairs
          la=3 lb=3:      3 shell pairs

Calculating one electron integrals          ... done (  0.0 sec)
Calculating RI/J V-Matrix + Cholesky decomp.... done (  0.0 sec)
Calculating Nuclear repulsion               ... done (  0.0 sec) ENN=     42.173306857063 Eh

SHARK setup successfully completed in   0.1 seconds

Maximum memory used throughout the entire GTOINT-calculation: 14.6 MB


           ************************************************************
           *        Program running with 5 parallel MPI-processes     *
           *              working on a common directory               *
           ************************************************************
-------------------------------------------------------------------------------
                                 ORCA SCF
-------------------------------------------------------------------------------

------------
SCF SETTINGS
------------
Hamiltonian:
 Density Functional     Method          .... DFT(GTOs)
 Exchange Functional    Exchange        .... PBE
   PBE kappa parameter   XKappa         ....  0.804000
   PBE mue parameter    XMuePBE         ....  0.219520
 Correlation Functional Correlation     .... PBE
   PBE beta parameter  CBetaPBE         ....  0.066725
 LDA part of GGA corr.  LDAOpt          .... PW91-LDA
 Gradients option       PostSCFGGA      .... off
 Hybrid DFT is turned on
   Fraction HF Exchange ScalHFX         ....  0.250000
   Scaling of DF-GGA-X  ScalDFX         ....  0.750000
   Scaling of DF-GGA-C  ScalDFC         ....  1.000000
   Scaling of DF-LDA-C  ScalLDAC        ....  1.000000
   Perturbative correction              ....  0.000000
   Density functional embedding theory  .... OFF
   NL short-range parameter             ....  6.900000
 RI-approximation to the Coulomb term is turned on
   Number of AuxJ basis functions       .... 164
   RIJ-COSX (HFX calculated with COS-X)).... on


General Settings:
 Integral files         IntName         .... C2N2_30
 Hartree-Fock type      HFTyp           .... RHF
 Total Charge           Charge          ....    0
 Multiplicity           Mult            ....    1
 Number of Electrons    NEL             ....   18
 Basis Dimension        Dim             ....   98
 Nuclear Repulsion      ENuc            ....     42.1733068571 Eh

Convergence Acceleration:
 DIIS                   CNVDIIS         .... on
   Start iteration      DIISMaxIt       ....    12
   Startup error        DIISStart       ....  0.200000
   # of expansion vecs  DIISMaxEq       ....     5
   Bias factor          DIISBfac        ....   1.050
   Max. coefficient     DIISMaxC        ....  10.000
 Trust-Rad. Augm. Hess. CNVTRAH         .... auto
   Auto Start mean grad. ratio tolernc. ....  1.125000
   Auto Start start iteration           ....    20
   Auto Start num. interpolation iter.  ....    10
   Max. Number of Micro iterations      ....    16
   Max. Number of Macro iterations      .... Maxiter - #DIIS iter
   Number of Davidson start vectors     ....     2
   Converg. threshold I  (grad. norm)   ....   1.000e-05
   Converg. threshold II (energy diff.) ....   1.000e-08
   Grad. Scal. Fac. for Micro threshold ....   0.100
   Minimum threshold for Micro iter.    ....   0.010
   NR start threshold (gradient norm)   ....   0.001
   Initial trust radius                 ....   0.400
   Minimum AH scaling param. (alpha)    ....   1.000
   Maximum AH scaling param. (alpha)    .... 1000.000
   Orbital update algorithm             .... Taylor
   White noise on init. David. guess    .... on
   Maximum white noise                  ....   0.010
   Quad. conv. algorithm                .... NR
 SOSCF                  CNVSOSCF        .... on
   Start iteration      SOSCFMaxIt      ....   150
   Startup grad/error   SOSCFStart      ....  0.003300
 Level Shifting         CNVShift        .... on
   Level shift para.    LevelShift      ....    0.2500
   Turn off err/grad.   ShiftErr        ....    0.0010
 Zerner damping         CNVZerner       .... off
 Static damping         CNVDamp         .... on
   Fraction old density DampFac         ....    0.7000
   Max. Damping (<1)    DampMax         ....    0.9800
   Min. Damping (>=0)   DampMin         ....    0.0000
   Turn off err/grad.   DampErr         ....    0.1000
 Fernandez-Rico         CNVRico         .... off

SCF Procedure:
 Maximum # iterations   MaxIter         ....   125
 SCF integral mode      SCFMode         .... Direct
   Integral package                     .... SHARK and LIBINT hybrid scheme
 Reset frequency        DirectResetFreq ....    20
 Integral Threshold     Thresh          ....  2.500e-11 Eh
 Primitive CutOff       TCut            ....  2.500e-12 Eh

Convergence Tolerance:
 Convergence Check Mode ConvCheckMode   .... Total+1el-Energy
 Convergence forced     ConvForced      .... 0
 Energy Change          TolE            ....  1.000e-08 Eh
 1-El. energy change                    ....  1.000e-05 Eh
 Orbital Gradient       TolG            ....  1.000e-05
 Orbital Rotation angle TolX            ....  1.000e-05
 DIIS Error             TolErr          ....  5.000e-07


Diagonalization of the overlap matrix:
Smallest eigenvalue                        ... 5.332e-04
Time for diagonalization                   ...    0.002 sec
Threshold for overlap eigenvalues          ... 1.000e-08
Number of eigenvalues below threshold      ... 0
Time for construction of square roots      ...    0.004 sec
Total time needed                          ...    0.006 sec

Time for model grid setup =    0.020 sec

------------------------------
INITIAL GUESS: MODEL POTENTIAL
------------------------------
Loading Hartree-Fock densities                     ... done
Calculating cut-offs                               ... done
Initializing the effective Hamiltonian             ... done
Setting up the integral package (SHARK)            ... done
Starting the Coulomb interaction                   ... done (   0.0 sec)
Reading the grid                                   ... done
Mapping shells                                     ... done
Starting the XC term evaluation                    ... done (   0.0 sec)
  promolecular density results
     # of electrons  =     17.999039741
     EX              =    -11.973089684
     EC              =     -0.554732604
     EX+EC           =    -12.527822288
Transforming the Hamiltonian                       ... done (   0.0 sec)
Diagonalizing the Hamiltonian                      ... done (   0.0 sec)
Back transforming the eigenvectors                 ... done (   0.0 sec)
Now organizing SCF variables                       ... done
                      ------------------
                      INITIAL GUESS DONE (   0.1 sec)
                      ------------------
-------------------
DFT GRID GENERATION
-------------------

General Integration Accuracy     IntAcc      ... 4.388
Radial Grid Type                 RadialGrid  ... OptM3 with GC (2021)
Angular Grid (max. ang.)         AngularGrid ... 4 (Lebedev-302)
Angular grid pruning method      GridPruning ... 4 (adaptive)
Weight generation scheme         WeightScheme... Becke
Basis function cutoff            BFCut       ... 1.0000e-11
Integration weight cutoff        WCut        ... 1.0000e-14
Angular grids for H and He will be reduced by one unit
Partially contracted basis set               ... off
Rotationally invariant grid construction     ... off

Total number of grid points                  ...    31683
Total number of batches                      ...      498
Average number of points per batch           ...       63
Average number of grid points per atom       ...     3960
Time for grid setup =    0.100 sec

--------------------
COSX GRID GENERATION
--------------------

GRIDX 1
-------
General Integration Accuracy     IntAcc      ... 3.816
Radial Grid Type                 RadialGrid  ... OptM3 with GC (2021)
Angular Grid (max. ang.)         AngularGrid ... 1 (Lebedev-50)
Angular grid pruning method      GridPruning ... 4 (adaptive)
Weight generation scheme         WeightScheme... Becke
Basis function cutoff            BFCut       ... 1.0000e-11
Integration weight cutoff        WCut        ... 1.0000e-14
Angular grids for H and He will be reduced by one unit
Partially contracted basis set               ... on
Rotationally invariant grid construction     ... off

Total number of grid points                  ...     4115
Total number of batches                      ...       70
Average number of points per batch           ...       58
Average number of grid points per atom       ...      514
UseSFitting                                  ... on

GRIDX 2
-------
General Integration Accuracy     IntAcc      ... 4.020
Radial Grid Type                 RadialGrid  ... OptM3 with GC (2021)
Angular Grid (max. ang.)         AngularGrid ... 2 (Lebedev-110)
Angular grid pruning method      GridPruning ... 4 (adaptive)
Weight generation scheme         WeightScheme... Becke
Basis function cutoff            BFCut       ... 1.0000e-11
Integration weight cutoff        WCut        ... 1.0000e-14
Angular grids for H and He will be reduced by one unit
Partially contracted basis set               ... on
Rotationally invariant grid construction     ... off

Total number of grid points                  ...     8394
Total number of batches                      ...      136
Average number of points per batch           ...       61
Average number of grid points per atom       ...     1049
UseSFitting                                  ... on

GRIDX 3
-------
General Integration Accuracy     IntAcc      ... 4.338
Radial Grid Type                 RadialGrid  ... OptM3 with GC (2021)
Angular Grid (max. ang.)         AngularGrid ... 3 (Lebedev-194)
Angular grid pruning method      GridPruning ... 4 (adaptive)
Weight generation scheme         WeightScheme... Becke
Basis function cutoff            BFCut       ... 1.0000e-11
Integration weight cutoff        WCut        ... 1.0000e-14
Angular grids for H and He will be reduced by one unit
Partially contracted basis set               ... on
Rotationally invariant grid construction     ... off

Total number of grid points                  ...    18427
Total number of batches                      ...      292
Average number of points per batch           ...       63
Average number of grid points per atom       ...     2303
UseSFitting                                  ... on

Time for X-Grid setup             =    0.115 sec

--------------
SCF ITERATIONS
--------------
ITER       Energy         Delta-E        Max-DP      RMS-DP      [F,P]     Damp
               ***  Starting incremental Fock matrix formation  ***
  0    -79.6391955477   0.000000000000 0.03307315  0.00145396  0.1890192 0.7000
  1    -79.6893529344  -0.050157386782 0.02165492  0.00107546  0.1006083 0.7000
                               ***Turning on DIIS***
  2    -79.7103053691  -0.020952434638 0.03398937  0.00186570  0.0397611 0.0000
  3    -79.7386644232  -0.028359054078 0.01391342  0.00070921  0.0535532 0.0000
  4    -79.7474158616  -0.008751438463 0.00272891  0.00020766  0.0113286 0.0000
                      *** Initiating the SOSCF procedure ***
                           *** Shutting down DIIS ***
                      *** Re-Reading the Fockian *** 
                      *** Removing any level shift *** 
ITER      Energy       Delta-E        Grad      Rot      Max-DP    RMS-DP
  5    -79.74785063  -0.0004347644  0.000891  0.000891  0.001087  0.000078
               *** Restarting incremental Fock matrix formation ***
  6    -79.74788171  -0.0000310805  0.000332  0.000640  0.000871  0.000054
  7    -79.74788227  -0.0000005672  0.000249  0.000172  0.000225  0.000011
  8    -79.74788348  -0.0000012084  0.000033  0.000036  0.000034  0.000002
  9    -79.74788349  -0.0000000086  0.000009  0.000011  0.000009  0.000001
                 **** Energy Check signals convergence ****
              ***Rediagonalizing the Fockian in SOSCF/NRSCF***

               *****************************************************
               *                     SUCCESS                       *
               *           SCF CONVERGED AFTER  10 CYCLES          *
               *****************************************************

Old exchange energy                            =     -3.121941981 Eh
New exchange energy                            =     -3.121933099 Eh
Exchange energy change after final integration =      0.000008882 Eh
Total energy after final integration           =    -79.747874610 Eh
Final COS-X integration done in                =     0.296 sec

----------------
TOTAL SCF ENERGY
----------------

Total Energy       :          -79.74787461 Eh           -2170.04999 eV

Components:
Nuclear Repulsion  :           42.17330686 Eh            1147.59402 eV
Electronic Energy  :         -121.92118147 Eh           -3317.64401 eV
One Electron Energy:         -189.20778329 Eh           -5148.60553 eV
Two Electron Energy:           67.28660182 Eh            1830.96152 eV
Max COSX asymmetry :            0.00000102 Eh               0.00003 eV

Virial components:
Potential Energy   :         -159.01724590 Eh           -4327.07925 eV
Kinetic Energy     :           79.26937129 Eh            2157.02925 eV
Virial Ratio       :            2.00603642


DFT components:
N(Alpha)           :        8.999993730760 electrons
N(Beta)            :        8.999993730760 electrons
N(Total)           :       17.999987461520 electrons
E(X)               :       -9.303780613760 Eh       
E(C)               :       -0.561878603053 Eh       
E(XC)              :       -9.865659216813 Eh       
DFET-embed. en.    :        0.000000000000 Eh       

---------------
SCF CONVERGENCE
---------------

  Last Energy change         ...   -1.5838e-09  Tolerance :   1.0000e-08
  Last MAX-Density change    ...    1.3323e-15  Tolerance :   1.0000e-07
  Last RMS-Density change    ...    2.3404e-17  Tolerance :   5.0000e-09
  Last Orbital Gradient      ...    7.7110e-07  Tolerance :   1.0000e-05
  Last Orbital Rotation      ...    6.2727e-07  Tolerance :   1.0000e-05

             **** THE GBW FILE WAS UPDATED (C2N2_30.gbw) ****
             **** DENSITY C2N2_30.scfp WAS UPDATED ****
             **** ENERGY FILE WAS UPDATED (C2N2_30.en.tmp) ****
             **** THE GBW FILE WAS UPDATED (C2N2_30.gbw) ****
             **** DENSITY C2N2_30.scfp WAS UPDATED ****
----------------
ORBITAL ENERGIES
----------------

  NO   OCC          E(Eh)            E(eV) 
   0   2.0000     -10.206808      -277.7414 
   1   2.0000     -10.206585      -277.7353 
   2   2.0000      -0.773206       -21.0400 
   3   2.0000      -0.631021       -17.1710 
   4   2.0000      -0.448660       -12.2087 
   5   2.0000      -0.448648       -12.2083 
   6   2.0000      -0.373732       -10.1698 
   7   2.0000      -0.352622        -9.5953 
   8   2.0000      -0.352605        -9.5949 
   9   0.0000       0.052730         1.4348 
  10   0.0000       0.091135         2.4799 
  11   0.0000       0.108278         2.9464 
  12   0.0000       0.108280         2.9464 
  13   0.0000       0.158409         4.3105 
  14   0.0000       0.158423         4.3109 
  15   0.0000       0.199870         5.4387 
  16   0.0000       0.209868         5.7108 
  17   0.0000       0.235225         6.4008 
  18   0.0000       0.235233         6.4010 
  19   0.0000       0.270490         7.3604 
  20   0.0000       0.270501         7.3607 
  21   0.0000       0.403295        10.9742 
  22   0.0000       0.426534        11.6066 
  23   0.0000       0.449023        12.2185 
  24   0.0000       0.449028        12.2187 
  25   0.0000       0.449993        12.2449 
  26   0.0000       0.518335        14.1046 
  27   0.0000       0.518360        14.1053 
  28   0.0000       0.551074        14.9955 
  29   0.0000       0.607867        16.5409 
  30   0.0000       0.618640        16.8340 
  31   0.0000       0.618647        16.8342 
  32   0.0000       0.881760        23.9939 
  33   0.0000       0.881814        23.9954 
  34   0.0000       0.936629        25.4870 
  35   0.0000       1.016043        27.6479 
  36   0.0000       1.016045        27.6480 
  37   0.0000       1.054198        28.6862 
  38   0.0000       1.054209        28.6865 
  39   0.0000       1.113108        30.2892 
  40   0.0000       1.483297        40.3626 
  41   0.0000       1.483324        40.3633 
  42   0.0000       1.484267        40.3890 
  43   0.0000       1.547023        42.0966 
  44   0.0000       1.547127        42.0995 
  45   0.0000       1.553455        42.2717 
  46   0.0000       1.621205        44.1152 
  47   0.0000       1.621215        44.1155 
  48   0.0000       1.721482        46.8439 
  49   0.0000       1.758822        47.8600 
  50   0.0000       1.803567        49.0776 
  51   0.0000       1.803594        49.0783 
  52   0.0000       1.950416        53.0735 
  53   0.0000       1.950451        53.0745 
  54   0.0000       1.983908        53.9849 
  55   0.0000       2.159093        58.7519 
  56   0.0000       2.256763        61.4096 
  57   0.0000       2.257533        61.4306 
  58   0.0000       2.257540        61.4308 
  59   0.0000       2.324969        63.2656 
  60   0.0000       2.325036        63.2675 
  61   0.0000       2.399007        65.2803 
  62   0.0000       2.399059        65.2817 
  63   0.0000       2.539074        69.0917 
  64   0.0000       2.539142        69.0936 
  65   0.0000       2.575932        70.0947 
  66   0.0000       2.575957        70.0954 
  67   0.0000       2.694453        73.3198 
  68   0.0000       2.790369        75.9298 
  69   0.0000       2.790456        75.9322 
  70   0.0000       2.881498        78.4095 
  71   0.0000       2.968916        80.7883 
  72   0.0000       2.968945        80.7891 
  73   0.0000       2.990168        81.3666 
  74   0.0000       3.115499        84.7770 
  75   0.0000       3.187483        86.7358 
  76   0.0000       3.187530        86.7371 
  77   0.0000       3.261148        88.7404 
  78   0.0000       3.285832        89.4120 
  79   0.0000       3.285840        89.4123 
  80   0.0000       3.346295        91.0573 
  81   0.0000       3.396180        92.4148 
  82   0.0000       3.542110        96.3857 
  83   0.0000       3.542171        96.3874 
  84   0.0000       3.759074       102.2896 
  85   0.0000       3.759152       102.2917 
  86   0.0000       3.886316       105.7520 
  87   0.0000       3.912291       106.4589 
  88   0.0000       3.912319       106.4596 
  89   0.0000       4.215803       114.7178 
  90   0.0000       4.215868       114.7196 
  91   0.0000       4.373321       119.0041 
  92   0.0000       4.501498       122.4920 
  93   0.0000       4.531380       123.3051 
  94   0.0000       4.531485       123.3080 
  95   0.0000       4.781588       130.1136 
  96   0.0000      22.298141       606.7633 
  97   0.0000      22.395653       609.4167 

                    ********************************
                    * MULLIKEN POPULATION ANALYSIS *
                    ********************************

-----------------------
MULLIKEN ATOMIC CHARGES
-----------------------
   0 C :   -0.345486
   1 C :   -0.345648
   2 H :    0.115111
   3 H :    0.115227
   4 H :    0.115209
   5 H :    0.115137
   6 H :    0.115230
   7 H :    0.115220
Sum of atomic charges:   -0.0000000

--------------------------------
MULLIKEN REDUCED ORBITAL CHARGES
--------------------------------
  0 C s       :     3.229050  s :     3.229050
      pz      :     1.052285  p :     3.055238
      px      :     0.950023
      py      :     1.052929
      dz2     :     0.004790  d :     0.057742
      dxz     :     0.019905
      dyz     :     0.005785
      dx2y2   :     0.008985
      dxy     :     0.018278
      f0      :     0.000412  f :     0.003456
      f+1     :     0.000445
      f-1     :     0.000407
      f+2     :     0.000749
      f-2     :    -0.000006
      f+3     :     0.000628
      f-3     :     0.000821
  1 C s       :     3.229155  s :     3.229155
      pz      :     1.052315  p :     3.055302
      px      :     0.950019
      py      :     1.052969
      dz2     :     0.004696  d :     0.057734
      dxz     :     0.020033
      dyz     :     0.005778
      dx2y2   :     0.009086
      dxy     :     0.018141
      f0      :     0.000463  f :     0.003456
      f+1     :     0.000471
      f-1     :     0.000290
      f+2     :     0.000804
      f-2     :    -0.000008
      f+3     :     0.000602
      f-3     :     0.000834
  2 H s       :     0.863790  s :     0.863790
      pz      :     0.008221  p :     0.021099
      px      :     0.005275
      py      :     0.007602
  3 H s       :     0.863683  s :     0.863683
      pz      :     0.010074  p :     0.021090
      px      :     0.006030
      py      :     0.004986
  4 H s       :     0.863700  s :     0.863700
      pz      :     0.004900  p :     0.021090
      px      :     0.005542
      py      :     0.010647
  5 H s       :     0.863768  s :     0.863768
      pz      :     0.007820  p :     0.021095
      px      :     0.005340
      py      :     0.007934
  6 H s       :     0.863675  s :     0.863675
      pz      :     0.005120  p :     0.021095
      px      :     0.005442
      py      :     0.010533
  7 H s       :     0.863686  s :     0.863686
      pz      :     0.010258  p :     0.021094
      px      :     0.006065
      py      :     0.004771


                     *******************************
                     * LOEWDIN POPULATION ANALYSIS *
                     *******************************

----------------------
LOEWDIN ATOMIC CHARGES
----------------------
   0 C :   -0.349137
   1 C :   -0.349137
   2 H :    0.116370
   3 H :    0.116381
   4 H :    0.116388
   5 H :    0.116388
   6 H :    0.116368
   7 H :    0.116379

-------------------------------
LOEWDIN REDUCED ORBITAL CHARGES
-------------------------------
  0 C s       :     2.842402  s :     2.842402
      pz      :     1.078767  p :     3.219588
      px      :     1.061953
      py      :     1.078868
      dz2     :     0.030591  d :     0.262302
      dxz     :     0.076780
      dyz     :     0.031329
      dx2y2   :     0.052933
      dxy     :     0.070667
      f0      :     0.002800  f :     0.024845
      f+1     :     0.003814
      f-1     :     0.002013
      f+2     :     0.004207
      f-2     :     0.002277
      f+3     :     0.003876
      f-3     :     0.005857
  1 C s       :     2.842389  s :     2.842389
      pz      :     1.078774  p :     3.219605
      px      :     1.061952
      py      :     1.078880
      dz2     :     0.029820  d :     0.262296
      dxz     :     0.077855
      dyz     :     0.031278
      dx2y2   :     0.053786
      dxy     :     0.069557
      f0      :     0.003058  f :     0.024846
      f+1     :     0.003926
      f-1     :     0.001543
      f+2     :     0.004320
      f-2     :     0.002274
      f+3     :     0.003761
      f-3     :     0.005964
  2 H s       :     0.821764  s :     0.821764
      pz      :     0.024345  p :     0.061866
      px      :     0.014614
      py      :     0.022907
  3 H s       :     0.821753  s :     0.821753
      pz      :     0.030257  p :     0.061866
      px      :     0.016468
      py      :     0.015141
  4 H s       :     0.821752  s :     0.821752
      pz      :     0.014963  p :     0.061860
      px      :     0.015238
      py      :     0.031659
  5 H s       :     0.821756  s :     0.821756
      pz      :     0.023186  p :     0.061856
      px      :     0.014771
      py      :     0.023899
  6 H s       :     0.821754  s :     0.821754
      pz      :     0.015602  p :     0.061878
      px      :     0.014998
      py      :     0.031279
  7 H s       :     0.821751  s :     0.821751
      pz      :     0.030780  p :     0.061870
      px      :     0.016553
      py      :     0.014536


                      *****************************
                      * MAYER POPULATION ANALYSIS *
                      *****************************

  NA   - Mulliken gross atomic population
  ZA   - Total nuclear charge
  QA   - Mulliken gross atomic charge
  VA   - Mayer's total valence
  BVA  - Mayer's bonded valence
  FA   - Mayer's free valence

  ATOM       NA         ZA         QA         VA         BVA        FA
  0 C      6.3455     6.0000    -0.3455     3.9093     3.9093    -0.0000
  1 C      6.3456     6.0000    -0.3456     3.9093     3.9093    -0.0000
  2 H      0.8849     1.0000     0.1151     0.9696     0.9696    -0.0000
  3 H      0.8848     1.0000     0.1152     0.9696     0.9696    -0.0000
  4 H      0.8848     1.0000     0.1152     0.9696     0.9696    -0.0000
  5 H      0.8849     1.0000     0.1151     0.9696     0.9696    -0.0000
  6 H      0.8848     1.0000     0.1152     0.9696     0.9696    -0.0000
  7 H      0.8848     1.0000     0.1152     0.9696     0.9696    -0.0000

  Mayer bond orders larger than 0.100000
B(  0-C ,  1-C ) :   0.9950 B(  0-C ,  2-H ) :   0.9747 B(  0-C ,  3-H ) :   0.9748 
B(  0-C ,  4-H ) :   0.9748 B(  1-C ,  5-H ) :   0.9747 B(  1-C ,  6-H ) :   0.9748 
B(  1-C ,  7-H ) :   0.9748 

-------
TIMINGS
-------

Total SCF time: 0 days 0 hours 0 min 3 sec 

Total time                  ....       3.274 sec
Sum of individual times     ....       3.087 sec  ( 94.3%)

Fock matrix formation       ....       2.724 sec  ( 83.2%)
  Split-RI-J                ....       0.236 sec  (  8.7% of F)
  Chain of spheres X        ....       1.534 sec  ( 56.3% of F)
  XC integration            ....       0.696 sec  ( 25.6% of F)
    Basis function eval.    ....       0.112 sec  ( 16.1% of XC)
    Density eval.           ....       0.109 sec  ( 15.7% of XC)
    XC-Functional eval.     ....       0.030 sec  (  4.3% of XC)
    XC-Potential eval.      ....       0.114 sec  ( 16.4% of XC)
Diagonalization             ....       0.031 sec  (  0.9%)
Density matrix formation    ....       0.003 sec  (  0.1%)
Population analysis         ....       0.015 sec  (  0.5%)
Initial guess               ....       0.032 sec  (  1.0%)
Orbital Transformation      ....       0.000 sec  (  0.0%)
Orbital Orthonormalization  ....       0.000 sec  (  0.0%)
DIIS solution               ....       0.024 sec  (  0.7%)
SOSCF solution              ....       0.023 sec  (  0.7%)
Grid generation             ....       0.235 sec  (  7.2%)

Maximum memory used throughout the entire SCF-calculation: 60.4 MB

-------------------------   --------------------
FINAL SINGLE POINT ENERGY       -79.747874610373
-------------------------   --------------------



           ************************************************************
           *        Program running with 5 parallel MPI-processes     *
           *              working on a common directory               *
           ************************************************************
------------------------------------------------------------------------------
                         ORCA SCF GRADIENT CALCULATION
------------------------------------------------------------------------------

 ... reading COSX grid (gridx3)
Gradient of the Kohn-Sham DFT energy:
Kohn-Sham wavefunction type      ... RKS
Hartree-Fock exchange scaling    ...    0.250
Number of operators              ...    1
Number of atoms                  ...    8
Basis set dimensions             ...   98
Integral neglect threshold       ... 2.5e-11
Integral primitive cutoff        ... 2.5e-12
SHARK Integral package           ... ON

Nuc. rep. gradient       (SHARK) ... done (  0.0 sec)
HCore & Overlap gradient (SHARK) ... done (  0.0 sec)
RI-J gradient            (SHARK) ... done (  0.1 sec)
COSX-gradient                    ... done (  0.3 sec)
Exchange-correlation gradient    ... done

------------------
CARTESIAN GRADIENT
------------------

   1   C   :   -0.008460275   -0.000082859    0.000627797
   2   C   :    0.008482895    0.000138374   -0.000611937
   3   H   :    0.002409684   -0.000259713    0.001792260
   4   H   :    0.002187990   -0.001556512   -0.001393164
   5   H   :    0.002187133    0.001894443   -0.000943077
   6   H   :   -0.002396509   -0.000440215   -0.001790254
   7   H   :   -0.002237471    0.001839855    0.000849946
   8   H   :   -0.002158643   -0.001498807    0.001470274

Difference to translation invariance:
           :    0.0000148023    0.0000345659    0.0000018465

Difference to rotation invariance:
           :   -0.0000390196   -0.0002193037    0.0001176105

Norm of the cartesian gradient     ...    0.0141121601
RMS gradient                       ...    0.0028806326
MAX gradient                       ...    0.0084828949

-------
TIMINGS
-------

Total SCF gradient time            ...        0.783 sec

One electron gradient       ....       0.013 sec  (  1.7%)
RI-J Coulomb gradient       ....       0.073 sec  (  9.3%)
COSX gradient               ....       0.346 sec  ( 44.2%)
XC gradient                 ....       0.227 sec  ( 29.0%)

Maximum memory used throughout the entire SCFGRAD-calculation: 35.2 MB

                            ***************************************
                            *     ORCA property calculations      *
                            ***************************************

                                    ---------------------
                                    Active property flags
                                    ---------------------
   (+) Dipole Moment
   (+) Chemical Shifts
   (+) Nuclear properties (Hyperfine,Quadrupole)


------------------------------------------------------------------------------
                       ORCA ELECTRIC PROPERTIES CALCULATION
------------------------------------------------------------------------------

Dipole Moment Calculation                       ... on
Quadrupole Moment Calculation                   ... off
Polarizability Calculation                      ... off
GBWName                                         ... C2N2_30.gbw
Electron density                                ... C2N2_30.scfp
The origin for moment calculation is the CENTER OF MASS  = ( 3.150371,  0.414128 -0.167437)

-------------
DIPOLE MOMENT
-------------
                                X             Y             Z
Electronic contribution:      0.00009       0.00016       0.00004
Nuclear contribution   :     -0.00006      -0.00013      -0.00002
                        -----------------------------------------
Total Dipole Moment    :      0.00003       0.00003       0.00002
                        -----------------------------------------
Magnitude (a.u.)       :      0.00005
Magnitude (Debye)      :      0.00011



--------------------
Rotational spectrum 
--------------------
 
Rotational constants in cm-1:     2.659368     0.665332     0.665326 
Rotational constants in MHz : 79725.851705 19946.153953 19945.977191 

 Dipole components along the rotational axes: 
x,y,z [a.u.] :    -0.000028    -0.000033     0.000012 
x,y,z [Debye]:    -0.000072    -0.000084     0.000030 

 


           ************************************************************
           *        Program running with 5 parallel MPI-processes     *
           *              working on a common directory               *
           ************************************************************
------------------------------------------------------------------------------
                                ORCA EPR/NMR CALCULATION
------------------------------------------------------------------------------

GBWName                      ... C2N2_30.gbw
Electron density             ... C2N2_30.scfp
Spin density                 ... C2N2_30.scfr
Treatment of gauge           ... GIAO (approximations 1/2el = 0,0)
Details of the CP(SCF) procedure:
       Solver   = POPLE   
       MaxIter  =    64   
       Tolerance=    1.000e-04
       COSX Grid=     1   
       Op-0     =   0-  8 =>   9- 97
Multiplicity                 ... 1
g-tensor                     ... 0
NMR chemical shifts          ... 1
NMR spin-spin couplings      ... 0
NMR spectrum                 ... 0
Number of nuclei for epr/nmr ... 8
   Nucleus:   0C 
       Hyperfine : Isotope=   13 I=   0.500 P= 134.190
       Quadrupole: Isotope=   13 I=   0.500 Q=   0.000
       Spin-Orbit: Zeff=   3.600
       Nuclear Spin-Spin: Gn=   0.000
       EPRNMR Input: 
       rho(0)=N f(grad)=N a(iso)=N a(dip)=N a(orb)=N sigma(nmr)=Y spin-spin(nmr)=all-N,DSO-N,PSO-N,FC-N,SD-N
   Nucleus:   1C 
       Hyperfine : Isotope=   13 I=   0.500 P= 134.190
       Quadrupole: Isotope=   13 I=   0.500 Q=   0.000
       Spin-Orbit: Zeff=   3.600
       Nuclear Spin-Spin: Gn=   0.000
       EPRNMR Input: 
       rho(0)=N f(grad)=N a(iso)=N a(dip)=N a(orb)=N sigma(nmr)=Y spin-spin(nmr)=all-N,DSO-N,PSO-N,FC-N,SD-N
   Nucleus:   2H 
       Hyperfine : Isotope=    1 I=   0.500 P= 533.551
       Quadrupole: Isotope=    2 I=   1.000 Q=   0.003
       Spin-Orbit: Zeff=   1.000
       Nuclear Spin-Spin: Gn=   0.000
       EPRNMR Input: 
       rho(0)=N f(grad)=N a(iso)=N a(dip)=N a(orb)=N sigma(nmr)=Y spin-spin(nmr)=all-N,DSO-N,PSO-N,FC-N,SD-N
   Nucleus:   3H 
       Hyperfine : Isotope=    1 I=   0.500 P= 533.551
       Quadrupole: Isotope=    2 I=   1.000 Q=   0.003
       Spin-Orbit: Zeff=   1.000
       Nuclear Spin-Spin: Gn=   0.000
       EPRNMR Input: 
       rho(0)=N f(grad)=N a(iso)=N a(dip)=N a(orb)=N sigma(nmr)=Y spin-spin(nmr)=all-N,DSO-N,PSO-N,FC-N,SD-N
   Nucleus:   4H 
       Hyperfine : Isotope=    1 I=   0.500 P= 533.551
       Quadrupole: Isotope=    2 I=   1.000 Q=   0.003
       Spin-Orbit: Zeff=   1.000
       Nuclear Spin-Spin: Gn=   0.000
       EPRNMR Input: 
       rho(0)=N f(grad)=N a(iso)=N a(dip)=N a(orb)=N sigma(nmr)=Y spin-spin(nmr)=all-N,DSO-N,PSO-N,FC-N,SD-N
   Nucleus:   5H 
       Hyperfine : Isotope=    1 I=   0.500 P= 533.551
       Quadrupole: Isotope=    2 I=   1.000 Q=   0.003
       Spin-Orbit: Zeff=   1.000
       Nuclear Spin-Spin: Gn=   0.000
       EPRNMR Input: 
       rho(0)=N f(grad)=N a(iso)=N a(dip)=N a(orb)=N sigma(nmr)=Y spin-spin(nmr)=all-N,DSO-N,PSO-N,FC-N,SD-N
   Nucleus:   6H 
       Hyperfine : Isotope=    1 I=   0.500 P= 533.551
       Quadrupole: Isotope=    2 I=   1.000 Q=   0.003
       Spin-Orbit: Zeff=   1.000
       Nuclear Spin-Spin: Gn=   0.000
       EPRNMR Input: 
       rho(0)=N f(grad)=N a(iso)=N a(dip)=N a(orb)=N sigma(nmr)=Y spin-spin(nmr)=all-N,DSO-N,PSO-N,FC-N,SD-N
   Nucleus:   7H 
       Hyperfine : Isotope=    1 I=   0.500 P= 533.551
       Quadrupole: Isotope=    2 I=   1.000 Q=   0.003
       Spin-Orbit: Zeff=   1.000
       Nuclear Spin-Spin: Gn=   0.000
       EPRNMR Input: 
       rho(0)=N f(grad)=N a(iso)=N a(dip)=N a(orb)=N sigma(nmr)=Y spin-spin(nmr)=all-N,DSO-N,PSO-N,FC-N,SD-N
Forming RHS of the CP-SCF equations         ... 
Calculating right hand sides for GIAO treatment        ... 
  Entering RightHandSide GIAO. ScalHFX=    0.2500 NeedHFX=1
     -> 1-electron GIAO integrals will be done analytically
     -> RIJCOSX used in SCF. Same chosen for GIAO calculation.
     Making grid for GIAO integrations   ...

GRID GIAO
---------

General Integration Accuracy     IntAcc      ... 4.388
Radial Grid Type                 RadialGrid  ... OptM3 with GC (2021)
Angular Grid (max. ang.)         AngularGrid ... 4 (Lebedev-302)
Angular grid pruning method      GridPruning ... 4 (adaptive)
Weight generation scheme         WeightScheme... Becke
Basis function cutoff            BFCut       ... 1.0000e-11
Integration weight cutoff        WCut        ... 1.0000e-14
Angular grids for H and He will be reduced by one unit
Partially contracted basis set               ... off
Rotationally invariant grid construction     ... off

Total number of grid points                  ...    31683
Total number of batches                      ...      498
Average number of points per batch           ...       63
Average number of grid points per atom       ...     3960

  One-electron GIAO integrals (SHARK)     ... done
  Calculating G(B)[P]                     ... (RI-J: SHARK-ok) (COSX-ok) (add-J+K:ok) => dG/dB done
  DFT XC-terms                            ... done
  Extracting occupied and virtual blocks  ... 
  Operator  0  NO=   9 NV=  89 
  Transforming and RHS contribution       ... done
  Adding eps_i * S(B)_ai terms            ... done
  Projecting overlap derivatives          ... done
  Building G[dS/dB_ij] (COSX)             ... done
  Transforming to MO basis                ... done
  Summing G[dS/dB_ij] into RHS contribs.  ... done

  GIAO profiling information: 
    Total GIAO time               ...       0.8 sec
       GIAO 1-electron integrals  ...       0.0 sec (  0.6%)
       GIAO G(dS/dB) terms        ...       0.1 sec ( 11.0%)
       GIAO RI-J                  ...       0.1 sec (  7.3%)
       GIAO COSX                  ...       0.2 sec ( 24.3%)
       GIAO XC-terms              ...       0.4 sec ( 44.7%)
       Right hand side assembly   ...       0.0 sec (  0.1%)

  GIAO right hand side done


------------------------------------------------------------------------------
                           ORCA CP-SCF CALCULATION
------------------------------------------------------------------------------

Input orbitals are from        ... C2N2_30.gbw
Input Perturbation             ... C2N2_30.pin.tmp
Wavefunction output            ... C2N2_30.pout.tmp
Perturbation mode              ... Imaginary perturbation
Solver                         ... POPLE
Max. number of iterations      ... 64
Convergence tolerance          ... 1.000e-04
Integral handling              ... Direct
DFT GridXC                     ... 1
COSX GridX                     ... 1
COSX IntAccX                   ... 3.067
COSX Algorithm                 ... Auto
Number of perturbations        ... 3
Number of operators            ... 1
Orbital ranges used for CP-SCF:
 Operator 0:  Orbitals   0...  8  to   9... 97
Variables per perturbation     ... 801
DFT calculation                         ... on
XC functional terms                     ... off
Hybrid DFT                              ... on
   Exchange mixing (SCF)                ...  0.250
   Exchange mixing (CP-SCF)             ...  0.250
   GGA exch. scaling(SCF)               ...  0.750
   GGA exch. scaling (CP-SCF)           ...  0.750
   GGA corr. scaling (SCF)              ...  1.000
   GGA corr. scaling (CP-SCF)           ...  1.000

CP-SCF GRID
-----------

General Integration Accuracy     IntAcc      ... 3.467
Radial Grid Type                 RadialGrid  ... OptM3 with GC (2021)
Angular Grid (max. ang.)         AngularGrid ... 1 (Lebedev-50)
Angular grid pruning method      GridPruning ... 4 (adaptive)
Weight generation scheme         WeightScheme... Becke
Basis function cutoff            BFCut       ... 1.0000e-11
Integration weight cutoff        WCut        ... 1.0000e-14
Angular grids for H and He will be reduced by one unit
Partially contracted basis set               ... off
Rotationally invariant grid construction     ... off

Total number of grid points                  ...     4374
Total number of batches                      ...       72
Average number of points per batch           ...       60
Average number of grid points per atom       ...      547

CP-SCF GRIDX
------------

General Integration Accuracy     IntAcc      ... 3.067
Radial Grid Type                 RadialGrid  ... OptM3 with GC (2021)
Angular Grid (max. ang.)         AngularGrid ... 1 (Lebedev-50)
Angular grid pruning method      GridPruning ... 4 (adaptive)
Weight generation scheme         WeightScheme... Becke
Basis function cutoff            BFCut       ... 1.0000e-11
Integration weight cutoff        WCut        ... 1.0000e-14
Angular grids for H and He will be reduced by one unit
Partially contracted basis set               ... on
Rotationally invariant grid construction     ... off

Total number of grid points                  ...     2067
Total number of batches                      ...       37
Average number of points per batch           ...       55
Average number of grid points per atom       ...      258

Memory available               ... 1014.3 MB
Memory needed per perturbation ...   0.4 MB
Perturbations treated per batch... 3
Number of batches              ... 1
     CP-SCF ITERATION   0:   2.0270e-01 (   0.1 sec   0/  3 done)
     CP-SCF ITERATION   1:   2.1992e-03 (   0.1 sec   0/  3 done)
     CP-SCF ITERATION   2:   8.8567e-05 (   0.1 sec   3/  3 done)
                    *** THE CP-SCF HAS CONVERGED ***

Forming final perturbed densities           ... done
Transforming perturbed density to AO basis  ... done

Magnetic field perturbation calculated in  1.112 sec

---------------
CHEMICAL SHIFTS
---------------

Note: using conversion factor for au to ppm alpha^2/2 =   26.625677252 
GIAO: Analytic para- and diamagnetic shielding integrals (SHARK)       ...done
 --------------
 Nucleus   0C :
 --------------

Diamagnetic contribution to the shielding tensor (ppm) : 
           253.796         -0.405        -0.957
             0.102        243.082        -0.091
            -0.983          0.115       243.172

Paramagnetic contribution to the shielding tensor (ppm): 
           -61.956          0.360        -0.354
             0.197        -67.715         2.196
            -0.305         -2.268       -67.700

Total shielding tensor (ppm): 
           191.839         -0.045        -1.311
             0.299        175.367         2.104
            -1.288         -2.152       175.472


 Diagonalized sT*s matrix:
 
 sDSO           243.086          243.084          253.879  iso=     246.683
 sPSO           -67.733          -67.703          -61.936  iso=     -65.791
        ---------------  ---------------  ---------------
 Total          175.353          175.382          191.943  iso=     180.893

 --------------
 Nucleus   1C :
 --------------

Diamagnetic contribution to the shielding tensor (ppm) : 
           253.756          0.623        -1.387
             0.187        235.015         0.277
            -1.610         -0.329       235.133

Paramagnetic contribution to the shielding tensor (ppm): 
           -61.913         -0.329         0.107
            -0.223        -59.647        -2.415
             0.299          2.448       -59.660

Total shielding tensor (ppm): 
           191.843          0.294        -1.281
            -0.036        175.369        -2.137
            -1.311          2.119       175.473


 Diagonalized sT*s matrix:
 
 sDSO           235.007          235.016          253.881  iso=     241.301
 sPSO           -59.640          -59.645          -61.935  iso=     -60.407
        ---------------  ---------------  ---------------
 Total          175.367          175.371          191.946  iso=     180.895

 --------------
 Nucleus   2H :
 --------------

Diamagnetic contribution to the shielding tensor (ppm) : 
            29.085          3.113        -3.895
             1.744         32.626        -5.750
            -2.644         -5.831        32.004

Paramagnetic contribution to the shielding tensor (ppm): 
             2.444         -0.120         0.760
             0.264         -2.791         1.896
             0.498          1.831        -0.945

Total shielding tensor (ppm): 
            31.529          2.993        -3.135
             2.008         29.836        -3.854
            -2.146         -4.000        31.059


 Diagonalized sT*s matrix:
 
 sDSO            26.728           27.958           39.030  iso=      31.238
 sPSO            -0.265            1.118           -2.145  iso=      -0.431
        ---------------  ---------------  ---------------
 Total           26.463           29.076           36.885  iso=      30.808

 --------------
 Nucleus   3H :
 --------------

Diamagnetic contribution to the shielding tensor (ppm) : 
            30.288          1.539         5.955
             1.573         26.977         2.208
             3.844          2.271        36.369

Paramagnetic contribution to the shielding tensor (ppm): 
             2.264         -0.294        -1.534
            -0.682          0.265         0.020
            -0.778         -0.156        -3.745

Total shielding tensor (ppm): 
            32.552          1.245         4.421
             0.891         27.242         2.228
             3.066          2.115        32.624


 Diagonalized sT*s matrix:
 
 sDSO            26.673           27.911           39.049  iso=      31.211
 sPSO            -0.213            1.165           -2.168  iso=      -0.405
        ---------------  ---------------  ---------------
 Total           26.460           29.076           36.881  iso=      30.806

 --------------
 Nucleus   4H :
 --------------

Diamagnetic contribution to the shielding tensor (ppm) : 
            29.183         -5.522        -1.642
            -3.372         36.496         3.475
            -0.654          3.701        27.705

Paramagnetic contribution to the shielding tensor (ppm): 
             2.646          1.316        -0.059
             0.522         -2.916        -1.742
            -0.678         -1.933        -0.698

Total shielding tensor (ppm): 
            31.829         -4.206        -1.702
            -2.850         33.580         1.733
            -1.332          1.768        27.008


 Diagonalized sT*s matrix:
 
 sDSO            26.732           27.543           39.109  iso=      31.128
 sPSO            -0.271            1.532           -2.228  iso=      -0.323
        ---------------  ---------------  ---------------
 Total           26.461           29.075           36.881  iso=      30.805

 --------------
 Nucleus   5H :
 --------------

Diamagnetic contribution to the shielding tensor (ppm) : 
            29.098         -3.357        -3.978
            -4.900         27.616         6.097
            -4.929          5.865        28.194

Paramagnetic contribution to the shielding tensor (ppm): 
             2.533          0.216         0.945
             2.800          2.572        -2.257
             2.824         -1.861         2.407

Total shielding tensor (ppm): 
            31.631         -3.141        -3.033
            -2.100         30.188         3.840
            -2.105          4.004        30.601


 Diagonalized sT*s matrix:
 
 sDSO            21.929           24.956           38.022  iso=      28.303
 sPSO             4.532            4.120           -1.140  iso=       2.504
        ---------------  ---------------  ---------------
 Total           26.462           29.075           36.883  iso=      30.807

 --------------
 Nucleus   6H :
 --------------

Diamagnetic contribution to the shielding tensor (ppm) : 
            28.885          5.346        -2.135
             6.531         32.563        -3.381
            -2.759         -3.402        23.130

Paramagnetic contribution to the shielding tensor (ppm): 
             2.807         -1.280         0.232
            -3.798          0.931         1.239
             1.301          1.233         4.107

Total shielding tensor (ppm): 
            31.692          4.066        -1.903
             2.733         33.494        -2.142
            -1.458         -2.169        27.237


 Diagonalized sT*s matrix:
 
 sDSO            21.965           24.508           38.106  iso=      28.193
 sPSO             4.499            4.569           -1.223  iso=       2.615
        ---------------  ---------------  ---------------
 Total           26.463           29.077           36.883  iso=      30.808

 --------------
 Nucleus   7H :
 --------------

Diamagnetic contribution to the shielding tensor (ppm) : 
            30.506         -1.140         5.828
            -1.566         22.656        -2.535
             7.198         -2.715        31.528

Paramagnetic contribution to the shielding tensor (ppm): 
             2.083          0.263        -1.305
             0.964          4.322         0.725
            -4.050          0.989         1.326

Total shielding tensor (ppm): 
            32.589         -0.876         4.523
            -0.602         26.979        -1.811
             3.148         -1.726        32.854


 Diagonalized sT*s matrix:
 
 sDSO            21.900           24.715           38.076  iso=      28.230
 sPSO             4.563            4.362           -1.194  iso=       2.577
        ---------------  ---------------  ---------------
 Total           26.463           29.077           36.882  iso=      30.807



--------------------------------
CHEMICAL SHIELDING SUMMARY (ppm)
--------------------------------


  Nucleus  Element    Isotropic     Anisotropy
  -------  -------  ------------   ------------
      0       C          180.893         16.575 
      1       C          180.895         16.577 
      2       H           30.808          9.116 
      3       H           30.806          9.113 
      4       H           30.805          9.113 
      5       H           30.807          9.114 
      6       H           30.808          9.113 
      7       H           30.807          9.112 



Maximum memory used throughout the entire EPRNMR-calculation: 13.0 MB

----------------------------------------------------------------------------
                           ORCA NUMERICAL FREQUENCIES
                              (5-process run)
----------------------------------------------------------------------------

Number of atoms                ... 8
Central differences            ... used
Number of displacements        ... 48
Numerical increment            ... 5.000e-03 bohr
IR-spectrum generation         ... on
Raman-spectrum generation      ... off
Surface Crossing Hessian       ... off

The output will be reduced. Please look at the following files:
SCF program output             ... >C2N2_30.lastscf
Integral program output        ... >C2N2_30.lastint
Gradient program output        ... >C2N2_30.lastgrad
Dipole moment program output   ... >C2N2_30.lastmom
AutoCI program output          ... >C2N2_30.lastautoci

	<< Calculating on displaced geometry   2 (of  48) >>
	<< Calculating on displaced geometry   4 (of  48) >>
	<< Calculating on displaced geometry   3 (of  48) >>
	<< Calculating on displaced geometry   5 (of  48) >>
	<< Calculating on displaced geometry   1 (of  48) >>
	<< Calculating on displaced geometry   7 (of  48) >>
	<< Calculating on displaced geometry   6 (of  48) >>
	<< Calculating on displaced geometry   8 (of  48) >>
	<< Calculating on displaced geometry  10 (of  48) >>
	<< Calculating on displaced geometry   9 (of  48) >>
	<< Calculating on displaced geometry  11 (of  48) >>
	<< Calculating on displaced geometry  12 (of  48) >>
	<< Calculating on displaced geometry  13 (of  48) >>
	<< Calculating on displaced geometry  14 (of  48) >>
	<< Calculating on displaced geometry  15 (of  48) >>
	<< Calculating on displaced geometry  16 (of  48) >>
	<< Calculating on displaced geometry  17 (of  48) >>
	<< Calculating on displaced geometry  18 (of  48) >>
	<< Calculating on displaced geometry  19 (of  48) >>
	<< Calculating on displaced geometry  20 (of  48) >>
	<< Calculating on displaced geometry  22 (of  48) >>
	<< Calculating on displaced geometry  21 (of  48) >>
	<< Calculating on displaced geometry  23 (of  48) >>
	<< Calculating on displaced geometry  24 (of  48) >>
	<< Calculating on displaced geometry  25 (of  48) >>
	<< Calculating on displaced geometry  26 (of  48) >>
	<< Calculating on displaced geometry  27 (of  48) >>
	<< Calculating on displaced geometry  28 (of  48) >>
	<< Calculating on displaced geometry  30 (of  48) >>
	<< Calculating on displaced geometry  29 (of  48) >>
	<< Calculating on displaced geometry  31 (of  48) >>
	<< Calculating on displaced geometry  32 (of  48) >>
	<< Calculating on displaced geometry  34 (of  48) >>
	<< Calculating on displaced geometry  33 (of  48) >>
	<< Calculating on displaced geometry  35 (of  48) >>
	<< Calculating on displaced geometry  36 (of  48) >>
	<< Calculating on displaced geometry  37 (of  48) >>
	<< Calculating on displaced geometry  38 (of  48) >>
	<< Calculating on displaced geometry  39 (of  48) >>
	<< Calculating on displaced geometry  40 (of  48) >>
	<< Calculating on displaced geometry  41 (of  48) >>
	<< Calculating on displaced geometry  42 (of  48) >>
	<< Calculating on displaced geometry  43 (of  48) >>
	<< Calculating on displaced geometry  44 (of  48) >>
	<< Calculating on displaced geometry  45 (of  48) >>
	<< Calculating on displaced geometry  46 (of  48) >>
	<< Calculating on displaced geometry  47 (of  48) >>
	<< Calculating on displaced geometry  48 (of  48) >>

-----------------------
VIBRATIONAL FREQUENCIES
-----------------------

Scaling factor for frequencies =  1.000000000 (already applied!)

   0:         0.00 cm**-1
   1:         0.00 cm**-1
   2:         0.00 cm**-1
   3:         0.00 cm**-1
   4:         0.00 cm**-1
   5:         0.00 cm**-1
   6:       160.71 cm**-1
   7:       866.56 cm**-1
   8:       867.49 cm**-1
   9:      1004.92 cm**-1
  10:      1201.60 cm**-1
  11:      1202.23 cm**-1
  12:      1386.06 cm**-1
  13:      1407.73 cm**-1
  14:      1492.20 cm**-1
  15:      1492.68 cm**-1
  16:      1499.09 cm**-1
  17:      1499.38 cm**-1
  18:      3044.23 cm**-1
  19:      3046.48 cm**-1
  20:      3111.84 cm**-1
  21:      3112.10 cm**-1
  22:      3135.10 cm**-1
  23:      3135.59 cm**-1


------------
NORMAL MODES
------------

These modes are the cartesian displacements weighted by the diagonal matrix
M(i,i)=1/sqrt(m[i]) where m[i] is the mass of the displaced atom
Thus, these vectors are normalized but *not* orthogonal

                  0          1          2          3          4          5    
      0       0.000000   0.000000   0.000000   0.000000   0.000000   0.000000
      1       0.000000   0.000000   0.000000   0.000000   0.000000   0.000000
      2       0.000000   0.000000   0.000000   0.000000   0.000000   0.000000
      3       0.000000   0.000000   0.000000   0.000000   0.000000   0.000000
      4       0.000000   0.000000   0.000000   0.000000   0.000000   0.000000
      5       0.000000   0.000000   0.000000   0.000000   0.000000   0.000000
      6       0.000000   0.000000   0.000000   0.000000   0.000000   0.000000
      7       0.000000   0.000000   0.000000   0.000000   0.000000   0.000000
      8       0.000000   0.000000   0.000000   0.000000   0.000000   0.000000
      9       0.000000   0.000000   0.000000   0.000000   0.000000   0.000000
     10       0.000000   0.000000   0.000000   0.000000   0.000000   0.000000
     11       0.000000   0.000000   0.000000   0.000000   0.000000   0.000000
     12       0.000000   0.000000   0.000000   0.000000   0.000000   0.000000
     13       0.000000   0.000000   0.000000   0.000000   0.000000   0.000000
     14       0.000000   0.000000   0.000000   0.000000   0.000000   0.000000
     15       0.000000   0.000000   0.000000   0.000000   0.000000   0.000000
     16       0.000000   0.000000   0.000000   0.000000   0.000000   0.000000
     17       0.000000   0.000000   0.000000   0.000000   0.000000   0.000000
     18       0.000000   0.000000   0.000000   0.000000   0.000000   0.000000
     19       0.000000   0.000000   0.000000   0.000000   0.000000   0.000000
     20       0.000000   0.000000   0.000000   0.000000   0.000000   0.000000
     21       0.000000   0.000000   0.000000   0.000000   0.000000   0.000000
     22       0.000000   0.000000   0.000000   0.000000   0.000000   0.000000
     23       0.000000   0.000000   0.000000   0.000000   0.000000   0.000000
                  6          7          8          9         10         11    
      0      -0.009026  -0.002382  -0.003043   0.347403   0.004441  -0.010212
      1      -0.000081   0.040138  -0.026482   0.002590  -0.134916  -0.046312
      2       0.000665  -0.026280  -0.040019  -0.027245   0.046158  -0.134589
      3       0.009023  -0.001171  -0.003571  -0.347417  -0.004358   0.010262
      4       0.000126   0.047185  -0.009675  -0.002690   0.136860   0.039879
      5      -0.000740  -0.009749  -0.047125   0.027157  -0.039616   0.136575
      6       0.001859   0.481573   0.181744   0.353661  -0.452235   0.204704
      7       0.297659  -0.153708   0.116010   0.038452   0.118863   0.167825
      8       0.279230   0.003231   0.170985   0.002136   0.079942   0.157683
      9      -0.005992  -0.084887  -0.487557   0.352406   0.052998  -0.486565
     10      -0.390302  -0.209659   0.067976  -0.040026   0.251998   0.025986
     11       0.119921   0.091350   0.170735  -0.011460  -0.096764   0.082408
     12      -0.050061  -0.375150   0.344537   0.347178   0.383281   0.316326
     13       0.092050  -0.149072   0.050213   0.010414   0.072403  -0.011297
     14      -0.394468   0.138196   0.169480  -0.073941  -0.165874   0.202749
     15      -0.007463  -0.235541   0.455979  -0.354089  -0.272581  -0.412665
     16       0.280661  -0.190113   0.031315   0.030942  -0.185499   0.066533
     17      -0.295783   0.122443   0.129349  -0.003815   0.161655  -0.096024
     18       0.048382   0.512678   0.007309  -0.346734   0.493420  -0.065239
     19       0.115797  -0.134002   0.074181   0.007733  -0.047814  -0.064175
     20       0.388820   0.017186   0.214482   0.073882  -0.031440  -0.256229
     21       0.013316  -0.256345  -0.423193  -0.352257  -0.205869   0.442847
     22      -0.396392  -0.203959   0.091137  -0.046331  -0.233119  -0.108217
     23      -0.096833   0.056907   0.183347   0.014242  -0.025475  -0.114256
                 12         13         14         15         16         17    
      0      -0.092888  -0.094270  -0.001017   0.001512  -0.000792  -0.003637
      1      -0.000427  -0.000677  -0.021813  -0.011332   0.046829  -0.006227
      2       0.007326   0.007404  -0.013606   0.021401  -0.007413  -0.045977
      3      -0.093618   0.093535  -0.001817  -0.000681  -0.002278  -0.002846
      4      -0.001036   0.000897   0.013233  -0.019309   0.041528  -0.023987
      5       0.007356  -0.007319  -0.021223  -0.014175  -0.022974  -0.040365
      6       0.379092   0.381280   0.217579   0.197705  -0.180645  -0.175757
      7      -0.107907  -0.102626   0.247566  -0.274119  -0.201527   0.303033
      8       0.085508   0.094953   0.313392  -0.155242  -0.297760   0.186482
      9       0.357604   0.359374   0.071912  -0.276463  -0.058350   0.216217
     10      -0.042850  -0.053176   0.411831   0.209461  -0.464948  -0.177676
     11      -0.181615  -0.182301  -0.175897   0.072291   0.170910  -0.083372
     12       0.370101   0.371707  -0.285200   0.035595   0.243853   0.005157
     13       0.157943   0.163427  -0.105644   0.133260   0.082032  -0.143778
     14       0.008981   0.000293  -0.040705  -0.470145   0.137499   0.473323
     15       0.380022  -0.376050   0.129890  -0.262350   0.061467  -0.244337
     16       0.121241  -0.114592  -0.300217  -0.169346  -0.324385  -0.135911
     17       0.079474  -0.087812   0.355664   0.040129   0.381280  -0.012121
     18       0.376083  -0.371790  -0.272689   0.070311  -0.210030   0.143305
     19      -0.150907   0.154364   0.146103   0.113990   0.157680   0.099195
     20       0.018077  -0.009913   0.129535   0.450264   0.146915   0.457636
     21       0.359448  -0.355758   0.172268   0.225307   0.180281   0.132655
     22       0.039914  -0.050016  -0.297409   0.351873  -0.301682   0.415154
     23      -0.185375   0.183769  -0.166976  -0.023400  -0.176762   0.006882
                 18         19         20         21         22         23    
      0      -0.035057   0.033035  -0.003395   0.004131   0.001082  -0.005153
      1      -0.000284   0.000108  -0.046313  -0.047078   0.062960   0.017894
      2       0.002892  -0.002941  -0.045462   0.046732   0.019556  -0.062876
      3      -0.031538  -0.036400   0.003895  -0.003724   0.001446  -0.005083
      4       0.000157   0.000231   0.044168   0.047467   0.062456   0.023221
      5       0.002677   0.003291   0.048821  -0.043461   0.021510  -0.062041
      6       0.114188  -0.103993  -0.003333   0.166602  -0.073386  -0.146339
      7       0.280995  -0.253130  -0.014193   0.379514  -0.156178  -0.331916
      8      -0.303232   0.274762  -0.005841  -0.408933   0.187993   0.350743
      9       0.168191  -0.151682   0.206982  -0.114955  -0.132915   0.201185
     10       0.114403  -0.104029   0.125475  -0.087236  -0.074113   0.136926
     11       0.375203  -0.336386   0.437186  -0.241500  -0.280321   0.417948
     12       0.134588  -0.123074  -0.162988  -0.101322   0.193303   0.006497
     13      -0.391976   0.356033   0.445139   0.273482  -0.519902  -0.018038
     14      -0.106347   0.095472   0.115309   0.088865  -0.140748  -0.019539
     15       0.109200   0.122066   0.171615   0.011526   0.158175  -0.067756
     16      -0.269373  -0.298018  -0.393474  -0.021032  -0.353057   0.160085
     17      -0.260772  -0.290331  -0.378356  -0.040022  -0.352103   0.137948
     18       0.113564   0.126559  -0.077989  -0.161586  -0.148683  -0.113312
     19       0.347784   0.385007  -0.218920  -0.461932  -0.418253  -0.318951
     20      -0.115798  -0.126857   0.088199   0.149494   0.148505   0.094463
     21       0.153794   0.170225  -0.140241   0.194894  -0.026610   0.241691
     22      -0.080313  -0.089905   0.081530  -0.087435   0.027083  -0.118022
     23       0.344589   0.379167  -0.296523   0.413118  -0.052656   0.506895


-----------
IR SPECTRUM
-----------

 Mode   freq       eps      Int      T**2         TX        TY        TZ
       cm**-1   L/(mol*cm) km/mol    a.u.
----------------------------------------------------------------------------
  6:    160.71   0.000001    0.01  0.000003  ( 0.000029  0.001620  0.000001)
  7:    866.56   0.001039    5.25  0.000374  ( 0.000831 -0.017831  0.007444)
  8:    867.49   0.001058    5.35  0.000381  ( 0.001584  0.007500  0.017937)
  9:   1004.92   0.000000    0.00  0.000000  ( 0.000001  0.000147 -0.000001)
 10:   1201.60   0.000008    0.04  0.000002  (-0.000024  0.000732  0.001287)
 11:   1202.23   0.000024    0.12  0.000006  ( 0.000027 -0.002446  0.000471)
 12:   1386.06   0.000688    3.47  0.000155  ( 0.012402  0.000142 -0.000979)
 13:   1407.73   0.000000    0.00  0.000000  ( 0.000048 -0.000133  0.000007)
 14:   1492.20   0.000164    0.83  0.000034  ( 0.000342  0.001947  0.005508)
 15:   1492.68   0.000292    1.48  0.000061  (-0.000139  0.007704 -0.001327)
 16:   1499.09   0.001880    9.50  0.000391  ( 0.000759 -0.018597  0.006708)
 17:   1499.38   0.001961    9.91  0.000408  ( 0.001706  0.006530  0.019039)
 18:   3044.23   0.010609   53.61  0.001087  (-0.032909 -0.000172  0.002108)
 19:   3046.48   0.000028    0.14  0.000003  (-0.001652 -0.000305  0.000171)
 20:   3111.84   0.000002    0.01  0.000000  ( 0.000101  0.000427 -0.000162)
 21:   3112.10   0.000006    0.03  0.000001  ( 0.000100 -0.000728 -0.000171)
 22:   3135.10   0.008768   44.31  0.000873  ( 0.000638  0.028030  0.009309)
 23:   3135.59   0.008912   45.04  0.000887  (-0.002327  0.009189 -0.028233)

* The epsilon (eps) is given for a Dirac delta lineshape.
** The dipole moment derivative (T) already includes vibrational overlap.

The first frequency considered to be a vibration is 6
The total number of vibrations considered is 18


--------------------------
THERMOCHEMISTRY AT 298.15K
--------------------------

Temperature         ... 298.15 K
Pressure            ... 1.00 atm
Total Mass          ... 30.07 AMU

Throughout the following assumptions are being made:
  (1) The electronic state is orbitally nondegenerate
  (2) There are no thermally accessible electronically excited states
  (3) Hindered rotations indicated by low frequency modes are not
      treated as such but are treated as vibrations and this may
      cause some error
  (4) All equations used are the standard statistical mechanics
      equations for an ideal gas
  (5) All vibrations are strictly harmonic

freq.     160.71  E(vib)   ...       0.39 
freq.     866.56  E(vib)   ...       0.04 
freq.     867.49  E(vib)   ...       0.04 
freq.    1004.92  E(vib)   ...       0.02 
freq.    1201.60  E(vib)   ...       0.01 
freq.    1202.23  E(vib)   ...       0.01 
freq.    1386.06  E(vib)   ...       0.00 
freq.    1407.73  E(vib)   ...       0.00 
freq.    1492.20  E(vib)   ...       0.00 
freq.    1492.68  E(vib)   ...       0.00 
freq.    1499.09  E(vib)   ...       0.00 
freq.    1499.38  E(vib)   ...       0.00 
freq.    3044.23  E(vib)   ...       0.00 
freq.    3046.48  E(vib)   ...       0.00 
freq.    3111.84  E(vib)   ...       0.00 
freq.    3112.10  E(vib)   ...       0.00 
freq.    3135.10  E(vib)   ...       0.00 
freq.    3135.59  E(vib)   ...       0.00 

------------
INNER ENERGY
------------

The inner energy is: U= E(el) + E(ZPE) + E(vib) + E(rot) + E(trans)
    E(el)   - is the total energy from the electronic structure calculation
              = E(kin-el) + E(nuc-el) + E(el-el) + E(nuc-nuc)
    E(ZPE)  - the the zero temperature vibrational energy from the frequency calculation
    E(vib)  - the the finite temperature correction to E(ZPE) due to population
              of excited vibrational states
    E(rot)  - is the rotational thermal energy
    E(trans)- is the translational thermal energy

Summary of contributions to the inner energy U:
Electronic energy                ...    -79.74787461 Eh
Zero point energy                ...      0.07441858 Eh      46.70 kcal/mol
Thermal vibrational correction   ...      0.00085173 Eh       0.53 kcal/mol
Thermal rotational correction    ...      0.00141627 Eh       0.89 kcal/mol
Thermal translational correction ...      0.00141627 Eh       0.89 kcal/mol
-----------------------------------------------------------------------
Total thermal energy                    -79.66977176 Eh


Summary of corrections to the electronic energy:
(perhaps to be used in another calculation)
Total thermal correction                  0.00368427 Eh       2.31 kcal/mol
Non-thermal (ZPE) correction              0.07441858 Eh      46.70 kcal/mol
-----------------------------------------------------------------------
Total correction                          0.07810285 Eh      49.01 kcal/mol


--------
ENTHALPY
--------

The enthalpy is H = U + kB*T
                kB is Boltzmann's constant
Total free energy                 ...    -79.66977176 Eh 
Thermal Enthalpy correction       ...      0.00094421 Eh       0.59 kcal/mol
-----------------------------------------------------------------------
Total Enthalpy                    ...    -79.66882755 Eh


Note: Rotational entropy computed according to Herzberg 
Infrared and Raman Spectra, Chapter V,1, Van Nostrand Reinhold, 1945 
Point Group:  D3, Symmetry Number:   6  
Rotational constants in cm-1:     2.659368     0.665332     0.665326 

Vibrational entropy computed according to the QRRHO of S. Grimme
Chem.Eur.J. 2012 18 9955


-------
ENTROPY
-------

The entropy contributions are T*S = T*(S(el)+S(vib)+S(rot)+S(trans))
     S(el)   - electronic entropy
     S(vib)  - vibrational entropy
     S(rot)  - rotational entropy
     S(trans)- translational entropy
The entropies will be listed as multiplied by the temperature to get
units of energy

Electronic entropy                ...      0.00000000 Eh      0.00 kcal/mol
Vibrational entropy               ...      0.00147186 Eh      0.92 kcal/mol
Rotational entropy                ...      0.00774205 Eh      4.86 kcal/mol
Translational entropy             ...      0.01716939 Eh     10.77 kcal/mol
-----------------------------------------------------------------------
Final entropy term                ...      0.02638329 Eh     16.56 kcal/mol

In case the symmetry of your molecule has not been determined correctly
or in case you have a reason to use a different symmetry number we print 
out the resulting rotational entropy values for sn=1,12 :
 --------------------------------------------------------
|  sn= 1 | S(rot)=       0.00943379 Eh      5.92 kcal/mol|
|  sn= 2 | S(rot)=       0.00877934 Eh      5.51 kcal/mol|
|  sn= 3 | S(rot)=       0.00839650 Eh      5.27 kcal/mol|
|  sn= 4 | S(rot)=       0.00812488 Eh      5.10 kcal/mol|
|  sn= 5 | S(rot)=       0.00791419 Eh      4.97 kcal/mol|
|  sn= 6 | S(rot)=       0.00774205 Eh      4.86 kcal/mol|
|  sn= 7 | S(rot)=       0.00759650 Eh      4.77 kcal/mol|
|  sn= 8 | S(rot)=       0.00747042 Eh      4.69 kcal/mol|
|  sn= 9 | S(rot)=       0.00735921 Eh      4.62 kcal/mol|
|  sn=10 | S(rot)=       0.00725974 Eh      4.56 kcal/mol|
|  sn=11 | S(rot)=       0.00716975 Eh      4.50 kcal/mol|
|  sn=12 | S(rot)=       0.00708759 Eh      4.45 kcal/mol|
 --------------------------------------------------------


-------------------
GIBBS FREE ENERGY
-------------------

The Gibbs free energy is G = H - T*S

Total enthalpy                    ...    -79.66882755 Eh 
Total entropy correction          ...     -0.02638329 Eh    -16.56 kcal/mol
-----------------------------------------------------------------------
Final Gibbs free energy         ...    -79.69521084 Eh

For completeness - the Gibbs free energy minus the electronic energy
G-E(el)                           ...      0.05266377 Eh     33.05 kcal/mol



Timings for individual modules:

Sum of individual times         ...      220.640 sec (=   3.677 min)
GTO integral calculation        ...        4.648 sec (=   0.077 min)   2.1 %
SCF iterations                  ...       10.067 sec (=   0.168 min)   4.6 %
EPR/NMR calculation             ...        2.861 sec (=   0.048 min)   1.3 %
SCF Gradient evaluation         ...        5.183 sec (=   0.086 min)   2.3 %
Numerical frequency calculation ...      197.881 sec (=   3.298 min)  89.7 %
                             ****ORCA TERMINATED NORMALLY****
TOTAL RUN TIME: 0 days 0 hours 3 minutes 31 seconds 837 msec
