
                                 *****************
                                 * O   R   C   A *
                                 *****************

                                            #,                                       
                                            ###                                      
                                            ####                                     
                                            #####                                    
                                            ######                                   
                                           ########,                                 
                                     ,,################,,,,,                         
                               ,,#################################,,                 
                          ,,##########################################,,             
                       ,#########################################, ''#####,          
                    ,#############################################,,   '####,        
                  ,##################################################,,,,####,       
                ,###########''''           ''''###############################       
              ,#####''   ,,,,##########,,,,          '''####'''          '####       
            ,##' ,,,,###########################,,,                        '##       
           ' ,,###''''                  '''############,,,                           
         ,,##''                                '''############,,,,        ,,,,,,###''
      ,#''                                            '''#######################'''  
     '                                                          ''''####''''         
             ,#######,   #######,   ,#######,      ##                                
            ,#'     '#,  ##    ##  ,#'     '#,    #''#        ######   ,####,        
            ##       ##  ##   ,#'  ##            #'  '#       #        #'  '#        
            ##       ##  #######   ##           ,######,      #####,   #    #        
            '#,     ,#'  ##    ##  '#,     ,#' ,#      #,         ##   #,  ,#        
             '#######'   ##     ##  '#######'  #'      '#     #####' # '####'        



                  #######################################################
                  #                        -***-                        #
                  #          Department of theory and spectroscopy      #
                  #    Directorship and core code : Frank Neese         #
                  #        Max Planck Institute fuer Kohlenforschung    #
                  #                Kaiser Wilhelm Platz 1               #
                  #                 D-45470 Muelheim/Ruhr               #
                  #                      Germany                        #
                  #                                                     #
                  #                  All rights reserved                #
                  #                        -***-                        #
                  #######################################################


                         Program Version 5.0.3 -  RELEASE  -


 With contributions from (in alphabetic order):
   Daniel Aravena         : Magnetic Suceptibility
   Michael Atanasov       : Ab Initio Ligand Field Theory (pilot matlab implementation)
   Alexander A. Auer      : GIAO ZORA, VPT2 properties, NMR spectrum
   Ute Becker             : Parallelization
   Giovanni Bistoni       : ED, misc. LED, open-shell LED, HFLD
   Martin Brehm           : Molecular dynamics
   Dmytro Bykov           : SCF Hessian
   Vijay G. Chilkuri      : MRCI spin determinant printing, contributions to CSF-ICE
   Dipayan Datta          : RHF DLPNO-CCSD density
   Achintya Kumar Dutta   : EOM-CC, STEOM-CC
   Dmitry Ganyushin       : Spin-Orbit,Spin-Spin,Magnetic field MRCI
   Miquel Garcia          : C-PCM and meta-GGA Hessian, CC/C-PCM, Gaussian charge scheme
   Yang Guo               : DLPNO-NEVPT2, F12-NEVPT2, CIM, IAO-localization
   Andreas Hansen         : Spin unrestricted coupled pair/coupled cluster methods
   Benjamin Helmich-Paris : MC-RPA, TRAH-SCF, COSX integrals
   Lee Huntington         : MR-EOM, pCC
   Robert Izsak           : Overlap fitted RIJCOSX, COSX-SCS-MP3, EOM
   Marcus Kettner         : VPT2
   Christian Kollmar      : KDIIS, OOCD, Brueckner-CCSD(T), CCSD density, CASPT2, CASPT2-K
   Simone Kossmann        : Meta GGA functionals, TD-DFT gradient, OOMP2, MP2 Hessian
   Martin Krupicka        : Initial AUTO-CI
   Lucas Lang             : DCDCAS
   Marvin Lechner         : AUTO-CI (C++ implementation), FIC-MRCC
   Dagmar Lenk            : GEPOL surface, SMD
   Dimitrios Liakos       : Extrapolation schemes; Compound Job, initial MDCI parallelization
   Dimitrios Manganas     : Further ROCIS development; embedding schemes
   Dimitrios Pantazis     : SARC Basis sets
   Anastasios Papadopoulos: AUTO-CI, single reference methods and gradients
   Taras Petrenko         : DFT Hessian,TD-DFT gradient, ASA, ECA, R-Raman, ABS, FL, XAS/XES, NRVS
   Peter Pinski           : DLPNO-MP2, DLPNO-MP2 Gradient
   Christoph Reimann      : Effective Core Potentials
   Marius Retegan         : Local ZFS, SOC
   Christoph Riplinger    : Optimizer, TS searches, QM/MM, DLPNO-CCSD(T), (RO)-DLPNO pert. Triples
   Tobias Risthaus        : Range-separated hybrids, TD-DFT gradient, RPA, STAB
   Michael Roemelt        : Original ROCIS implementation
   Masaaki Saitow         : Open-shell DLPNO-CCSD energy and density
   Barbara Sandhoefer     : DKH picture change effects
   Avijit Sen             : IP-ROCIS
   Kantharuban Sivalingam : CASSCF convergence, NEVPT2, FIC-MRCI
   Bernardo de Souza      : ESD, SOC TD-DFT
   Georgi Stoychev        : AutoAux, RI-MP2 NMR, DLPNO-MP2 response
   Willem Van den Heuvel  : Paramagnetic NMR
   Boris Wezisla          : Elementary symmetry handling
   Frank Wennmohs         : Technical directorship


 We gratefully acknowledge several colleagues who have allowed us to
 interface, adapt or use parts of their codes:
   Stefan Grimme, W. Hujo, H. Kruse, P. Pracht,  : VdW corrections, initial TS optimization,
                  C. Bannwarth, S. Ehlert          DFT functionals, gCP, sTDA/sTD-DF
   Ed Valeev, F. Pavosevic, A. Kumar             : LibInt (2-el integral package), F12 methods
   Garnet Chan, S. Sharma, J. Yang, R. Olivares  : DMRG
   Ulf Ekstrom                                   : XCFun DFT Library
   Mihaly Kallay                                 : mrcc  (arbitrary order and MRCC methods)
   Jiri Pittner, Ondrej Demel                    : Mk-CCSD
   Frank Weinhold                                : gennbo (NPA and NBO analysis)
   Christopher J. Cramer and Donald G. Truhlar   : smd solvation model
   Lars Goerigk                                  : TD-DFT with DH, B97 family of functionals
   V. Asgeirsson, H. Jonsson                     : NEB implementation
   FAccTs GmbH                                   : IRC, NEB, NEB-TS, DLPNO-Multilevel, CI-OPT
                                                   MM, QMMM, 2- and 3-layer-ONIOM, Crystal-QMMM,
                                                   LR-CPCM, SF, NACMEs, symmetry and pop. for TD-DFT,
                                                   nearIR, NL-DFT gradient (VV10), updates on ESD,
                                                   ML-optimized integration grids
   S Lehtola, MJT Oliveira, MAL Marques          : LibXC Library
   Liviu Ungur et al                             : ANISO software


 Your calculation uses the libint2 library for the computation of 2-el integrals
 For citations please refer to: http://libint.valeyev.net

 Your ORCA version has been built with support for libXC version: 5.1.0
 For citations please refer to: https://tddft.org/programs/libxc/

 This ORCA versions uses:
   CBLAS   interface :  Fast vector & matrix operations
   LAPACKE interface :  Fast linear algebra routines
   Shared memory     :  Shared parallel matrices


SCAN-COORDS
================================================================================

----- Orbital basis set information -----
Your calculation utilizes the basis: def2-TZVP
   F. Weigend and R. Ahlrichs, Phys. Chem. Chem. Phys. 7, 3297 (2005).

----- AuxJ basis set information -----
Your calculation utilizes the auxiliary basis: def2/J
   F. Weigend, Phys. Chem. Chem. Phys. 8, 1057 (2006).

================================================================================
                                        WARNINGS
                       Please study these warnings very carefully!
================================================================================

WARNING: Gradients needed for Numerical Frequencies
  ===> : Setting RunTyp to EnGrad

WARNING: The environment variable RSH_COMMAND is not set!
  ===> : All Displacements for the Numerical Hessian or Gradient calculation
         will be started on localhost

INFO   : the flag for use of the SHARK integral package has been found!

================================================================================
                                       INPUT FILE
================================================================================
NAME = CNH_120.inp
|  1> ! PAL5 PBE0 NumFreq
|  2> %method
|  3>         method DFT
|  4>         runtyp Energy
|  5> end
|  6> %basis
|  7>         basis "def2-TZVP"
|  8> end
|  9> %coords
| 10>         CTyp xyz
| 11>         Charge 0
| 12>         Mult 1
| 13>         Units Angs
| 14>         coords
| 15> 	#120
| 16> 	N     -1.011290    0.960957    0.000001
| 17> 	C     -0.437789    0.932598   -1.004636
| 18> 	H     -2.068270    1.013340    0.000003
| 19> 	end
| 20> end
| 21> %eprnmr
| 22>         NMRShielding 1
| 23>         Nuclei = all N {shift}
| 24>         Nuclei = all C {shift}
| 25>         Nuclei = all H {shift}
| 26> endd                         ****END OF INPUT****
================================================================================

                     *******************************
                     * Energy+Gradient Calculation *
                     *******************************

---------------------------------
CARTESIAN COORDINATES (ANGSTROEM)
---------------------------------
  N     -1.011290    0.960957    0.000001
  C     -0.437789    0.932598   -1.004636
  H     -2.068270    1.013340    0.000003

----------------------------
CARTESIAN COORDINATES (A.U.)
----------------------------
  NO LB      ZA    FRAG     MASS         X           Y           Z
   0 N     7.0000    0    14.007   -1.911061    1.815946    0.000002
   1 C     6.0000    0    12.011   -0.827301    1.762355   -1.898487
   2 H     1.0000    0     1.008   -3.908464    1.914935    0.000006

--------------------------------
INTERNAL COORDINATES (ANGSTROEM)
--------------------------------
 N      0   0   0     0.000000000000     0.00000000     0.00000000
 C      1   0   0     1.157153028623     0.00000000     0.00000000
 H      1   2   0     1.058277231680   119.75029644     0.00000000

---------------------------
INTERNAL COORDINATES (A.U.)
---------------------------
 N      0   0   0     0.000000000000     0.00000000     0.00000000
 C      1   0   0     2.186702319135     0.00000000     0.00000000
 H      1   2   0     1.999854141640   119.75029644     0.00000000

---------------------
BASIS SET INFORMATION
---------------------
There are 3 groups of distinct atoms

 Group   1 Type N   : 11s6p2d1f contracted to 5s3p2d1f pattern {62111/411/11/1}
 Group   2 Type C   : 11s6p2d1f contracted to 5s3p2d1f pattern {62111/411/11/1}
 Group   3 Type H   : 5s1p contracted to 3s1p pattern {311/1}

Atom   0N    basis set group =>   1
Atom   1C    basis set group =>   2
Atom   2H    basis set group =>   3
---------------------------------
AUXILIARY/J BASIS SET INFORMATION
---------------------------------
There are 3 groups of distinct atoms

 Group   1 Type N   : 12s5p4d2f1g contracted to 6s4p3d1f1g pattern {711111/2111/211/2/1}
 Group   2 Type C   : 12s5p4d2f1g contracted to 6s4p3d1f1g pattern {711111/2111/211/2/1}
 Group   3 Type H   : 5s2p1d contracted to 3s1p1d pattern {311/2/1}

Atom   0N    basis set group =>   1
Atom   1C    basis set group =>   2
Atom   2H    basis set group =>   3


           ************************************************************
           *        Program running with 5 parallel MPI-processes     *
           *              working on a common directory               *
           ************************************************************
------------------------------------------------------------------------------
                           ORCA GTO INTEGRAL CALCULATION
                           -- RI-GTO INTEGRALS CHOSEN --
------------------------------------------------------------------------------
------------------------------------------------------------------------------
                   ___                                                        
                  /   \      - P O W E R E D   B Y -                         
                 /     \                                                     
                 |  |  |   _    _      __       _____    __    __             
                 |  |  |  | |  | |    /  \     |  _  \  |  |  /  |          
                  \  \/   | |  | |   /    \    | | | |  |  | /  /          
                 / \  \   | |__| |  /  /\  \   | |_| |  |  |/  /          
                |  |  |   |  __  | /  /__\  \  |    /   |      \           
                |  |  |   | |  | | |   __   |  |    \   |  |\   \          
                \     /   | |  | | |  |  |  |  | |\  \  |  | \   \       
                 \___/    |_|  |_| |__|  |__|  |_| \__\ |__|  \__/        
                                                                              
                      - O R C A' S   B I G   F R I E N D -                    
                                      &                                       
                       - I N T E G R A L  F E E D E R -                       
                                                                              
 v1 FN, 2020, v2 2021                                                         
------------------------------------------------------------------------------


Reading SHARK input file CNH_120.SHARKINP.tmp ... ok
----------------------
SHARK INTEGRAL PACKAGE
----------------------

Number of atoms                             ...      3
Number of basis functions                   ...     68
Number of shells                            ...     26
Maximum angular momentum                    ...      3
Integral batch strategy                     ... SHARK/LIBINT Hybrid
RI-J (if used) integral strategy            ... SPLIT-RIJ (Revised 2003 algorithm where possible)
Printlevel                                  ...      1
Contraction scheme used                     ... SEGMENTED contraction
Coulomb Range Separation                    ... NOT USED
Exchange Range Separation                   ... NOT USED
Finite Nucleus Model                        ... NOT USED
Auxiliary Coulomb fitting basis             ... AVAILABLE
   # of basis functions in Aux-J            ...    109
   # of shells in Aux-J                     ...     35
   Maximum angular momentum in Aux-J        ...      4
Auxiliary J/K fitting basis                 ... NOT available
Auxiliary Correlation fitting basis         ... NOT available
Auxiliary 'external' fitting basis          ... NOT available
Integral threshold                          ...     2.500000e-11
Primitive cut-off                           ...     2.500000e-12
Primitive pair pre-selection threshold      ...     2.500000e-12

Calculating pre-screening integrals         ... done (  0.0 sec) Dimension = 26
Organizing shell pair data                  ... done (  0.0 sec)
Shell pair information
Total number of shell pairs                 ...       351
Shell pairs after pre-screening             ...       350
Total number of primitive shell pairs       ...      1128
Primitive shell pairs kept                  ...      1031
          la=0 lb=0:     90 shell pairs
          la=1 lb=0:     91 shell pairs
          la=1 lb=1:     28 shell pairs
          la=2 lb=0:     52 shell pairs
          la=2 lb=1:     28 shell pairs
          la=2 lb=2:     10 shell pairs
          la=3 lb=0:     26 shell pairs
          la=3 lb=1:     14 shell pairs
          la=3 lb=2:      8 shell pairs
          la=3 lb=3:      3 shell pairs

Calculating one electron integrals          ... done (  0.0 sec)
Calculating RI/J V-Matrix + Cholesky decomp.... done (  0.0 sec)
Calculating Nuclear repulsion               ... done (  0.0 sec) ENN=     24.363661534664 Eh

SHARK setup successfully completed in   0.1 seconds

Maximum memory used throughout the entire GTOINT-calculation: 14.0 MB


           ************************************************************
           *        Program running with 5 parallel MPI-processes     *
           *              working on a common directory               *
           ************************************************************
-------------------------------------------------------------------------------
                                 ORCA SCF
-------------------------------------------------------------------------------

------------
SCF SETTINGS
------------
Hamiltonian:
 Density Functional     Method          .... DFT(GTOs)
 Exchange Functional    Exchange        .... PBE
   PBE kappa parameter   XKappa         ....  0.804000
   PBE mue parameter    XMuePBE         ....  0.219520
 Correlation Functional Correlation     .... PBE
   PBE beta parameter  CBetaPBE         ....  0.066725
 LDA part of GGA corr.  LDAOpt          .... PW91-LDA
 Gradients option       PostSCFGGA      .... off
 Hybrid DFT is turned on
   Fraction HF Exchange ScalHFX         ....  0.250000
   Scaling of DF-GGA-X  ScalDFX         ....  0.750000
   Scaling of DF-GGA-C  ScalDFC         ....  1.000000
   Scaling of DF-LDA-C  ScalLDAC        ....  1.000000
   Perturbative correction              ....  0.000000
   Density functional embedding theory  .... OFF
   NL short-range parameter             ....  6.900000
 RI-approximation to the Coulomb term is turned on
   Number of AuxJ basis functions       .... 109
   RIJ-COSX (HFX calculated with COS-X)).... on


General Settings:
 Integral files         IntName         .... CNH_120
 Hartree-Fock type      HFTyp           .... RHF
 Total Charge           Charge          ....    0
 Multiplicity           Mult            ....    1
 Number of Electrons    NEL             ....   14
 Basis Dimension        Dim             ....   68
 Nuclear Repulsion      ENuc            ....     24.3636615347 Eh

Convergence Acceleration:
 DIIS                   CNVDIIS         .... on
   Start iteration      DIISMaxIt       ....    12
   Startup error        DIISStart       ....  0.200000
   # of expansion vecs  DIISMaxEq       ....     5
   Bias factor          DIISBfac        ....   1.050
   Max. coefficient     DIISMaxC        ....  10.000
 Trust-Rad. Augm. Hess. CNVTRAH         .... auto
   Auto Start mean grad. ratio tolernc. ....  1.125000
   Auto Start start iteration           ....    20
   Auto Start num. interpolation iter.  ....    10
   Max. Number of Micro iterations      ....    16
   Max. Number of Macro iterations      .... Maxiter - #DIIS iter
   Number of Davidson start vectors     ....     2
   Converg. threshold I  (grad. norm)   ....   1.000e-05
   Converg. threshold II (energy diff.) ....   1.000e-08
   Grad. Scal. Fac. for Micro threshold ....   0.100
   Minimum threshold for Micro iter.    ....   0.010
   NR start threshold (gradient norm)   ....   0.001
   Initial trust radius                 ....   0.400
   Minimum AH scaling param. (alpha)    ....   1.000
   Maximum AH scaling param. (alpha)    .... 1000.000
   Orbital update algorithm             .... Taylor
   White noise on init. David. guess    .... on
   Maximum white noise                  ....   0.010
   Quad. conv. algorithm                .... NR
 SOSCF                  CNVSOSCF        .... on
   Start iteration      SOSCFMaxIt      ....   150
   Startup grad/error   SOSCFStart      ....  0.003300
 Level Shifting         CNVShift        .... on
   Level shift para.    LevelShift      ....    0.2500
   Turn off err/grad.   ShiftErr        ....    0.0010
 Zerner damping         CNVZerner       .... off
 Static damping         CNVDamp         .... on
   Fraction old density DampFac         ....    0.7000
   Max. Damping (<1)    DampMax         ....    0.9800
   Min. Damping (>=0)   DampMin         ....    0.0000
   Turn off err/grad.   DampErr         ....    0.1000
 Fernandez-Rico         CNVRico         .... off

SCF Procedure:
 Maximum # iterations   MaxIter         ....   125
 SCF integral mode      SCFMode         .... Direct
   Integral package                     .... SHARK and LIBINT hybrid scheme
 Reset frequency        DirectResetFreq ....    20
 Integral Threshold     Thresh          ....  2.500e-11 Eh
 Primitive CutOff       TCut            ....  2.500e-12 Eh

Convergence Tolerance:
 Convergence Check Mode ConvCheckMode   .... Total+1el-Energy
 Convergence forced     ConvForced      .... 0
 Energy Change          TolE            ....  1.000e-08 Eh
 1-El. energy change                    ....  1.000e-05 Eh
 Orbital Gradient       TolG            ....  1.000e-05
 Orbital Rotation angle TolX            ....  1.000e-05
 DIIS Error             TolErr          ....  5.000e-07


Diagonalization of the overlap matrix:
Smallest eigenvalue                        ... 6.207e-04
Time for diagonalization                   ...    0.001 sec
Threshold for overlap eigenvalues          ... 1.000e-08
Number of eigenvalues below threshold      ... 0
Time for construction of square roots      ...    0.005 sec
Total time needed                          ...    0.006 sec

Time for model grid setup =    0.013 sec

------------------------------
INITIAL GUESS: MODEL POTENTIAL
------------------------------
Loading Hartree-Fock densities                     ... done
Calculating cut-offs                               ... done
Initializing the effective Hamiltonian             ... done
Setting up the integral package (SHARK)            ... done
Starting the Coulomb interaction                   ... done (   0.0 sec)
Reading the grid                                   ... done
Mapping shells                                     ... done
Starting the XC term evaluation                    ... done (   0.0 sec)
  promolecular density results
     # of electrons  =     13.999407284
     EX              =    -11.848336144
     EC              =     -0.433829505
     EX+EC           =    -12.282165649
Transforming the Hamiltonian                       ... done (   0.0 sec)
Diagonalizing the Hamiltonian                      ... done (   0.0 sec)
Back transforming the eigenvectors                 ... done (   0.0 sec)
Now organizing SCF variables                       ... done
                      ------------------
                      INITIAL GUESS DONE (   0.0 sec)
                      ------------------
-------------------
DFT GRID GENERATION
-------------------

General Integration Accuracy     IntAcc      ... 4.388
Radial Grid Type                 RadialGrid  ... OptM3 with GC (2021)
Angular Grid (max. ang.)         AngularGrid ... 4 (Lebedev-302)
Angular grid pruning method      GridPruning ... 4 (adaptive)
Weight generation scheme         WeightScheme... Becke
Basis function cutoff            BFCut       ... 1.0000e-11
Integration weight cutoff        WCut        ... 1.0000e-14
Angular grids for H and He will be reduced by one unit
Partially contracted basis set               ... off
Rotationally invariant grid construction     ... off

Total number of grid points                  ...    15548
Total number of batches                      ...      244
Average number of points per batch           ...       63
Average number of grid points per atom       ...     5183
Time for grid setup =    0.069 sec

--------------------
COSX GRID GENERATION
--------------------

GRIDX 1
-------
General Integration Accuracy     IntAcc      ... 3.816
Radial Grid Type                 RadialGrid  ... OptM3 with GC (2021)
Angular Grid (max. ang.)         AngularGrid ... 1 (Lebedev-50)
Angular grid pruning method      GridPruning ... 4 (adaptive)
Weight generation scheme         WeightScheme... Becke
Basis function cutoff            BFCut       ... 1.0000e-11
Integration weight cutoff        WCut        ... 1.0000e-14
Angular grids for H and He will be reduced by one unit
Partially contracted basis set               ... on
Rotationally invariant grid construction     ... off

Total number of grid points                  ...     1977
Total number of batches                      ...       33
Average number of points per batch           ...       59
Average number of grid points per atom       ...      659
UseSFitting                                  ... on

GRIDX 2
-------
General Integration Accuracy     IntAcc      ... 4.020
Radial Grid Type                 RadialGrid  ... OptM3 with GC (2021)
Angular Grid (max. ang.)         AngularGrid ... 2 (Lebedev-110)
Angular grid pruning method      GridPruning ... 4 (adaptive)
Weight generation scheme         WeightScheme... Becke
Basis function cutoff            BFCut       ... 1.0000e-11
Integration weight cutoff        WCut        ... 1.0000e-14
Angular grids for H and He will be reduced by one unit
Partially contracted basis set               ... on
Rotationally invariant grid construction     ... off

Total number of grid points                  ...     4565
Total number of batches                      ...       73
Average number of points per batch           ...       62
Average number of grid points per atom       ...     1522
UseSFitting                                  ... on

GRIDX 3
-------
General Integration Accuracy     IntAcc      ... 4.338
Radial Grid Type                 RadialGrid  ... OptM3 with GC (2021)
Angular Grid (max. ang.)         AngularGrid ... 3 (Lebedev-194)
Angular grid pruning method      GridPruning ... 4 (adaptive)
Weight generation scheme         WeightScheme... Becke
Basis function cutoff            BFCut       ... 1.0000e-11
Integration weight cutoff        WCut        ... 1.0000e-14
Angular grids for H and He will be reduced by one unit
Partially contracted basis set               ... on
Rotationally invariant grid construction     ... off

Total number of grid points                  ...    10167
Total number of batches                      ...      161
Average number of points per batch           ...       63
Average number of grid points per atom       ...     3389
UseSFitting                                  ... on

Time for X-Grid setup             =    0.081 sec

--------------
SCF ITERATIONS
--------------
ITER       Energy         Delta-E        Max-DP      RMS-DP      [F,P]     Damp
               ***  Starting incremental Fock matrix formation  ***
  0    -93.2400147684   0.000000000000 0.03672735  0.00171896  0.2241528 0.7000
  1    -93.2706286524  -0.030613883988 0.02542561  0.00123808  0.1072566 0.7000
                               ***Turning on DIIS***
  2    -93.2824804337  -0.011851781312 0.06386608  0.00230900  0.0386356 0.0000
  3    -93.3020093719  -0.019528938175 0.01536795  0.00083941  0.0493636 0.0000
  4    -93.3055223950  -0.003513023081 0.01098304  0.00037729  0.0152544 0.0000
                      *** Initiating the SOSCF procedure ***
                           *** Shutting down DIIS ***
                      *** Re-Reading the Fockian *** 
                      *** Removing any level shift *** 
ITER      Energy       Delta-E        Grad      Rot      Max-DP    RMS-DP
  5    -93.30589796  -0.0003755618  0.000491  0.000491  0.003146  0.000108
               *** Restarting incremental Fock matrix formation ***
  6    -93.30587041   0.0000275458  0.000213  0.000503  0.001332  0.000048
  7    -93.30587044  -0.0000000265  0.000301  0.000306  0.000234  0.000014
  8    -93.30587088  -0.0000004451  0.000042  0.000092  0.000330  0.000012
  9    -93.30587091  -0.0000000271  0.000019  0.000024  0.000059  0.000002
 10    -93.30587091  -0.0000000036  0.000004  0.000009  0.000012  0.000001
                  ***Gradient check signals convergence***
              ***Rediagonalizing the Fockian in SOSCF/NRSCF***

               *****************************************************
               *                     SUCCESS                       *
               *           SCF CONVERGED AFTER  11 CYCLES          *
               *****************************************************

Old exchange energy                            =     -3.012039429 Eh
New exchange energy                            =     -3.012047508 Eh
Exchange energy change after final integration =     -0.000008079 Eh
Total energy after final integration           =    -93.305878993 Eh
Final COS-X integration done in                =     0.106 sec

----------------
TOTAL SCF ENERGY
----------------

Total Energy       :          -93.30587899 Eh           -2538.98205 eV

Components:
Nuclear Repulsion  :           24.36366153 Eh             662.96894 eV
Electronic Energy  :         -117.66954053 Eh           -3201.95098 eV
One Electron Energy:         -173.55795286 Eh           -4722.75200 eV
Two Electron Energy:           55.88841233 Eh            1520.80102 eV
Max COSX asymmetry :            0.00000170 Eh               0.00005 eV

Virial components:
Potential Energy   :         -186.30382479 Eh           -5069.58481 eV
Kinetic Energy     :           92.99794579 Eh            2530.60276 eV
Virial Ratio       :            2.00331118


DFT components:
N(Alpha)           :        7.000000164582 electrons
N(Beta)            :        7.000000164582 electrons
N(Total)           :       14.000000329164 electrons
E(X)               :       -9.031437008028 Eh       
E(C)               :       -0.440873884388 Eh       
E(XC)              :       -9.472310892416 Eh       
DFET-embed. en.    :        0.000000000000 Eh       

---------------
SCF CONVERGENCE
---------------

  Last Energy change         ...   -2.9542e-10  Tolerance :   1.0000e-08
  Last MAX-Density change    ...    2.7756e-16  Tolerance :   1.0000e-07
  Last RMS-Density change    ...    1.6033e-17  Tolerance :   5.0000e-09
  Last Orbital Gradient      ...    1.5363e-06  Tolerance :   1.0000e-05
  Last Orbital Rotation      ...    1.4054e-06  Tolerance :   1.0000e-05

             **** THE GBW FILE WAS UPDATED (CNH_120.gbw) ****
             **** DENSITY CNH_120.scfp WAS UPDATED ****
             **** ENERGY FILE WAS UPDATED (CNH_120.en.tmp) ****
             **** THE GBW FILE WAS UPDATED (CNH_120.gbw) ****
             **** DENSITY CNH_120.scfp WAS UPDATED ****
----------------
ORBITAL ENERGIES
----------------

  NO   OCC          E(Eh)            E(eV) 
   0   2.0000     -14.421607      -392.4319 
   1   2.0000     -10.285329      -279.8780 
   2   2.0000      -0.999641       -27.2016 
   3   2.0000      -0.626169       -17.0389 
   4   2.0000      -0.428674       -11.6648 
   5   2.0000      -0.403748       -10.9865 
   6   2.0000      -0.339096        -9.2273 
   7   0.0000      -0.047787        -1.3003 
   8   0.0000       0.019085         0.5193 
   9   0.0000       0.046553         1.2668 
  10   0.0000       0.172155         4.6846 
  11   0.0000       0.215947         5.8762 
  12   0.0000       0.236185         6.4269 
  13   0.0000       0.243945         6.6381 
  14   0.0000       0.340102         9.2546 
  15   0.0000       0.394656        10.7391 
  16   0.0000       0.411962        11.2101 
  17   0.0000       0.458658        12.4807 
  18   0.0000       0.530129        14.4256 
  19   0.0000       0.639686        17.4068 
  20   0.0000       0.664048        18.0697 
  21   0.0000       0.690773        18.7969 
  22   0.0000       0.856832        23.3156 
  23   0.0000       0.894826        24.3495 
  24   0.0000       1.071202        29.1489 
  25   0.0000       1.126478        30.6530 
  26   0.0000       1.243611        33.8404 
  27   0.0000       1.310370        35.6570 
  28   0.0000       1.358496        36.9666 
  29   0.0000       1.414016        38.4773 
  30   0.0000       1.417561        38.5738 
  31   0.0000       1.461726        39.7756 
  32   0.0000       1.481611        40.3167 
  33   0.0000       1.678178        45.6655 
  34   0.0000       1.863867        50.7184 
  35   0.0000       2.004348        54.5411 
  36   0.0000       2.005174        54.5636 
  37   0.0000       2.223216        60.4968 
  38   0.0000       2.273952        61.8774 
  39   0.0000       2.408819        65.5473 
  40   0.0000       2.637945        71.7821 
  41   0.0000       2.661330        72.4185 
  42   0.0000       2.700079        73.4729 
  43   0.0000       2.828703        76.9729 
  44   0.0000       2.921471        79.4973 
  45   0.0000       3.000552        81.6492 
  46   0.0000       3.010583        81.9221 
  47   0.0000       3.043261        82.8113 
  48   0.0000       3.078902        83.7812 
  49   0.0000       3.237126        88.0867 
  50   0.0000       3.396735        92.4298 
  51   0.0000       3.444202        93.7215 
  52   0.0000       3.522130        95.8420 
  53   0.0000       3.951814       107.5343 
  54   0.0000       4.063707       110.5791 
  55   0.0000       4.280039       116.4658 
  56   0.0000       4.521585       123.0386 
  57   0.0000       4.542893       123.6184 
  58   0.0000       4.645056       126.3984 
  59   0.0000       4.831550       131.4732 
  60   0.0000       4.895416       133.2110 
  61   0.0000       5.185296       141.0991 
  62   0.0000       5.367720       146.0631 
  63   0.0000       5.400079       146.9436 
  64   0.0000       5.421826       147.5354 
  65   0.0000       5.821975       158.4240 
  66   0.0000      21.943492       597.1128 
  67   0.0000      31.945505       869.2814 

                    ********************************
                    * MULLIKEN POPULATION ANALYSIS *
                    ********************************

-----------------------
MULLIKEN ATOMIC CHARGES
-----------------------
   0 N :   -0.126684
   1 C :   -0.173896
   2 H :    0.300580
Sum of atomic charges:    0.0000000

--------------------------------
MULLIKEN REDUCED ORBITAL CHARGES
--------------------------------
  0 N s       :     3.443787  s :     3.443787
      pz      :     1.266898  p :     3.646974
      px      :     1.079759
      py      :     1.300317
      dz2     :     0.010007  d :     0.033414
      dxz     :     0.007485
      dyz     :     0.011808
      dx2y2   :     0.004641
      dxy     :    -0.000527
      f0      :     0.000366  f :     0.002508
      f+1     :     0.000197
      f-1     :     0.000457
      f+2     :     0.000171
      f-2     :     0.000487
      f+3     :     0.000558
      f-3     :     0.000272
  1 C s       :     3.876475  s :     3.876475
      pz      :     0.901318  p :     2.195586
      px      :     0.653255
      py      :     0.641013
      dz2     :     0.030760  d :     0.093221
      dxz     :     0.019796
      dyz     :     0.024514
      dx2y2   :     0.008505
      dxy     :     0.009646
      f0      :     0.002634  f :     0.008613
      f+1     :     0.000987
      f-1     :     0.001873
      f+2     :     0.001051
      f-2     :     0.001527
      f+3     :     0.000272
      f-3     :     0.000270
  2 H s       :     0.664355  s :     0.664355
      pz      :     0.008411  p :     0.035065
      px      :     0.018781
      py      :     0.007873


                     *******************************
                     * LOEWDIN POPULATION ANALYSIS *
                     *******************************

----------------------
LOEWDIN ATOMIC CHARGES
----------------------
   0 N :    0.000210
   1 C :   -0.223238
   2 H :    0.223029

-------------------------------
LOEWDIN REDUCED ORBITAL CHARGES
-------------------------------
  0 N s       :     3.146496  s :     3.146496
      pz      :     1.432293  p :     3.751955
      px      :     1.133671
      py      :     1.185992
      dz2     :     0.031958  d :     0.088637
      dxz     :     0.030271
      dyz     :     0.014337
      dx2y2   :     0.009746
      dxy     :     0.002325
      f0      :     0.002286  f :     0.012702
      f+1     :     0.004621
      f-1     :     0.001380
      f+2     :     0.001409
      f-2     :     0.001339
      f+3     :     0.001447
      f-3     :     0.000221
  1 C s       :     3.374641  s :     3.374641
      pz      :     1.121148  p :     2.522442
      px      :     0.724510
      py      :     0.676784
      dz2     :     0.094872  d :     0.267872
      dxz     :     0.073225
      dyz     :     0.057001
      dx2y2   :     0.021540
      dxy     :     0.021235
      f0      :     0.016697  f :     0.058283
      f+1     :     0.011980
      f-1     :     0.009429
      f+2     :     0.007919
      f-2     :     0.009604
      f+3     :     0.001303
      f-3     :     0.001351
  2 H s       :     0.680643  s :     0.680643
      pz      :     0.021597  p :     0.096329
      px      :     0.055471
      py      :     0.019260


                      *****************************
                      * MAYER POPULATION ANALYSIS *
                      *****************************

  NA   - Mulliken gross atomic population
  ZA   - Total nuclear charge
  QA   - Mulliken gross atomic charge
  VA   - Mayer's total valence
  BVA  - Mayer's bonded valence
  FA   - Mayer's free valence

  ATOM       NA         ZA         QA         VA         BVA        FA
  0 N      7.1267     7.0000    -0.1267     3.1820     3.1820     0.0000
  1 C      6.1739     6.0000    -0.1739     2.4608     2.4608     0.0000
  2 H      0.6994     1.0000     0.3006     0.9322     0.9322    -0.0000

  Mayer bond orders larger than 0.100000
B(  0-N ,  1-C ) :   2.3553 B(  0-N ,  2-H ) :   0.8267 B(  1-C ,  2-H ) :   0.1056 


-------
TIMINGS
-------

Total SCF time: 0 days 0 hours 0 min 1 sec 

Total time                  ....       1.925 sec
Sum of individual times     ....       1.770 sec  ( 91.9%)

Fock matrix formation       ....       1.507 sec  ( 78.3%)
  Split-RI-J                ....       0.161 sec  ( 10.7% of F)
  Chain of spheres X        ....       0.741 sec  ( 49.2% of F)
  XC integration            ....       0.352 sec  ( 23.4% of F)
    Basis function eval.    ....       0.048 sec  ( 13.6% of XC)
    Density eval.           ....       0.034 sec  (  9.7% of XC)
    XC-Functional eval.     ....       0.011 sec  (  3.1% of XC)
    XC-Potential eval.      ....       0.042 sec  ( 11.9% of XC)
Diagonalization             ....       0.025 sec  (  1.3%)
Density matrix formation    ....       0.001 sec  (  0.1%)
Population analysis         ....       0.011 sec  (  0.6%)
Initial guess               ....       0.017 sec  (  0.9%)
Orbital Transformation      ....       0.000 sec  (  0.0%)
Orbital Orthonormalization  ....       0.000 sec  (  0.0%)
DIIS solution               ....       0.020 sec  (  1.0%)
SOSCF solution              ....       0.026 sec  (  1.4%)
Grid generation             ....       0.163 sec  (  8.5%)

Maximum memory used throughout the entire SCF-calculation: 58.4 MB

-------------------------   --------------------
FINAL SINGLE POINT ENERGY       -93.305878992982
-------------------------   --------------------



           ************************************************************
           *        Program running with 5 parallel MPI-processes     *
           *              working on a common directory               *
           ************************************************************
------------------------------------------------------------------------------
                         ORCA SCF GRADIENT CALCULATION
------------------------------------------------------------------------------

 ... reading COSX grid (gridx3)
Gradient of the Kohn-Sham DFT energy:
Kohn-Sham wavefunction type      ... RKS
Hartree-Fock exchange scaling    ...    0.250
Number of operators              ...    1
Number of atoms                  ...    3
Basis set dimensions             ...   68
Integral neglect threshold       ... 2.5e-11
Integral primitive cutoff        ... 2.5e-12
SHARK Integral package           ... ON

Nuc. rep. gradient       (SHARK) ... done (  0.0 sec)
HCore & Overlap gradient (SHARK) ... done (  0.0 sec)
RI-J gradient            (SHARK) ... done (  0.0 sec)
COSX-gradient                    ... done (  0.1 sec)
Exchange-correlation gradient    ... done

------------------
CARTESIAN GRADIENT
------------------

   1   N   :    0.072875875   -0.003605472   -0.030525144
   2   C   :   -0.039743607    0.001957059    0.044232615
   3   H   :   -0.033199041    0.001646306   -0.013792653

Difference to translation invariance:
           :   -0.0000667722   -0.0000021070   -0.0000851817

Difference to rotation invariance:
           :   -0.0001750238   -0.0001971348    0.0001143957

Norm of the cartesian gradient     ...    0.1053124374
RMS gradient                       ...    0.0351041458
MAX gradient                       ...    0.0728758752

-------
TIMINGS
-------

Total SCF gradient time            ...        0.369 sec

One electron gradient       ....       0.004 sec  (  1.1%)
RI-J Coulomb gradient       ....       0.049 sec  ( 13.3%)
COSX gradient               ....       0.135 sec  ( 36.6%)
XC gradient                 ....       0.067 sec  ( 18.2%)

Maximum memory used throughout the entire SCFGRAD-calculation: 33.5 MB

                            ***************************************
                            *     ORCA property calculations      *
                            ***************************************

                                    ---------------------
                                    Active property flags
                                    ---------------------
   (+) Dipole Moment
   (+) Chemical Shifts
   (+) Nuclear properties (Hyperfine,Quadrupole)


------------------------------------------------------------------------------
                       ORCA ELECTRIC PROPERTIES CALCULATION
------------------------------------------------------------------------------

Dipole Moment Calculation                       ... on
Quadrupole Moment Calculation                   ... off
Polarizability Calculation                      ... off
GBWName                                         ... CNH_120.gbw
Electron density                                ... CNH_120.scfp
The origin for moment calculation is the CENTER OF MASS  = (-1.503910,  1.795821 -0.843732)

-------------
DIPOLE MOMENT
-------------
                                X             Y             Z
Electronic contribution:      0.26970      -0.01337      -0.09028
Nuclear contribution   :     -1.19495       0.05919       0.42134
                        -----------------------------------------
Total Dipole Moment    :     -0.92526       0.04583       0.33106
                        -----------------------------------------
Magnitude (a.u.)       :      0.98377
Magnitude (Debye)      :      2.50054



--------------------
Rotational spectrum 
--------------------
 
Rotational constants in cm-1:    23.401347     1.712118     1.595393 
Rotational constants in MHz : 701554.748495 51327.992370 47828.692070 

 Dipole components along the rotational axes: 
x,y,z [a.u.] :     0.809667     0.558787     0.000009 
x,y,z [Debye]:     2.058011     1.420323     0.000023 

 


           ************************************************************
           *        Program running with 5 parallel MPI-processes     *
           *              working on a common directory               *
           ************************************************************
------------------------------------------------------------------------------
                                ORCA EPR/NMR CALCULATION
------------------------------------------------------------------------------

GBWName                      ... CNH_120.gbw
Electron density             ... CNH_120.scfp
Spin density                 ... CNH_120.scfr
Treatment of gauge           ... GIAO (approximations 1/2el = 0,0)
Details of the CP(SCF) procedure:
       Solver   = POPLE   
       MaxIter  =    64   
       Tolerance=    1.000e-04
       COSX Grid=     1   
       Op-0     =   0-  6 =>   7- 67
Multiplicity                 ... 1
g-tensor                     ... 0
NMR chemical shifts          ... 1
NMR spin-spin couplings      ... 0
NMR spectrum                 ... 0
Number of nuclei for epr/nmr ... 3
   Nucleus:   0N 
       Hyperfine : Isotope=   14 I=   1.000 P=  38.568
       Quadrupole: Isotope=   14 I=   1.000 Q=   0.020
       Spin-Orbit: Zeff=   4.550
       Nuclear Spin-Spin: Gn=   0.000
       EPRNMR Input: 
       rho(0)=N f(grad)=N a(iso)=N a(dip)=N a(orb)=N sigma(nmr)=Y spin-spin(nmr)=all-N,DSO-N,PSO-N,FC-N,SD-N
   Nucleus:   1C 
       Hyperfine : Isotope=   13 I=   0.500 P= 134.190
       Quadrupole: Isotope=   13 I=   0.500 Q=   0.000
       Spin-Orbit: Zeff=   3.600
       Nuclear Spin-Spin: Gn=   0.000
       EPRNMR Input: 
       rho(0)=N f(grad)=N a(iso)=N a(dip)=N a(orb)=N sigma(nmr)=Y spin-spin(nmr)=all-N,DSO-N,PSO-N,FC-N,SD-N
   Nucleus:   2H 
       Hyperfine : Isotope=    1 I=   0.500 P= 533.551
       Quadrupole: Isotope=    2 I=   1.000 Q=   0.003
       Spin-Orbit: Zeff=   1.000
       Nuclear Spin-Spin: Gn=   0.000
       EPRNMR Input: 
       rho(0)=N f(grad)=N a(iso)=N a(dip)=N a(orb)=N sigma(nmr)=Y spin-spin(nmr)=all-N,DSO-N,PSO-N,FC-N,SD-N
Forming RHS of the CP-SCF equations         ... 
Calculating right hand sides for GIAO treatment        ... 
  Entering RightHandSide GIAO. ScalHFX=    0.2500 NeedHFX=1
     -> 1-electron GIAO integrals will be done analytically
     -> RIJCOSX used in SCF. Same chosen for GIAO calculation.
     Making grid for GIAO integrations   ...

GRID GIAO
---------

General Integration Accuracy     IntAcc      ... 4.388
Radial Grid Type                 RadialGrid  ... OptM3 with GC (2021)
Angular Grid (max. ang.)         AngularGrid ... 4 (Lebedev-302)
Angular grid pruning method      GridPruning ... 4 (adaptive)
Weight generation scheme         WeightScheme... Becke
Basis function cutoff            BFCut       ... 1.0000e-11
Integration weight cutoff        WCut        ... 1.0000e-14
Angular grids for H and He will be reduced by one unit
Partially contracted basis set               ... off
Rotationally invariant grid construction     ... off

Total number of grid points                  ...    15548
Total number of batches                      ...      244
Average number of points per batch           ...       63
Average number of grid points per atom       ...     5183

  One-electron GIAO integrals (SHARK)     ... done
  Calculating G(B)[P]                     ... (RI-J: SHARK-ok) (COSX-ok) (add-J+K:ok) => dG/dB done
  DFT XC-terms                            ... done
  Extracting occupied and virtual blocks  ... 
  Operator  0  NO=   7 NV=  61 
  Transforming and RHS contribution       ... done
  Adding eps_i * S(B)_ai terms            ... done
  Projecting overlap derivatives          ... done
  Building G[dS/dB_ij] (COSX)             ... done
  Transforming to MO basis                ... done
  Summing G[dS/dB_ij] into RHS contribs.  ... done

  GIAO profiling information: 
    Total GIAO time               ...       0.4 sec
       GIAO 1-electron integrals  ...       0.0 sec (  0.5%)
       GIAO G(dS/dB) terms        ...       0.1 sec ( 19.6%)
       GIAO RI-J                  ...       0.0 sec (  5.6%)
       GIAO COSX                  ...       0.1 sec ( 23.3%)
       GIAO XC-terms              ...       0.1 sec ( 29.6%)
       Right hand side assembly   ...       0.0 sec (  0.3%)

  GIAO right hand side done


------------------------------------------------------------------------------
                           ORCA CP-SCF CALCULATION
------------------------------------------------------------------------------

Input orbitals are from        ... CNH_120.gbw
Input Perturbation             ... CNH_120.pin.tmp
Wavefunction output            ... CNH_120.pout.tmp
Perturbation mode              ... Imaginary perturbation
Solver                         ... POPLE
Max. number of iterations      ... 64
Convergence tolerance          ... 1.000e-04
Integral handling              ... Direct
DFT GridXC                     ... 1
COSX GridX                     ... 1
COSX IntAccX                   ... 3.067
COSX Algorithm                 ... Auto
Number of perturbations        ... 3
Number of operators            ... 1
Orbital ranges used for CP-SCF:
 Operator 0:  Orbitals   0...  6  to   7... 67
Variables per perturbation     ... 427
DFT calculation                         ... on
XC functional terms                     ... off
Hybrid DFT                              ... on
   Exchange mixing (SCF)                ...  0.250
   Exchange mixing (CP-SCF)             ...  0.250
   GGA exch. scaling(SCF)               ...  0.750
   GGA exch. scaling (CP-SCF)           ...  0.750
   GGA corr. scaling (SCF)              ...  1.000
   GGA corr. scaling (CP-SCF)           ...  1.000

CP-SCF GRID
-----------

General Integration Accuracy     IntAcc      ... 3.467
Radial Grid Type                 RadialGrid  ... OptM3 with GC (2021)
Angular Grid (max. ang.)         AngularGrid ... 1 (Lebedev-50)
Angular grid pruning method      GridPruning ... 4 (adaptive)
Weight generation scheme         WeightScheme... Becke
Basis function cutoff            BFCut       ... 1.0000e-11
Integration weight cutoff        WCut        ... 1.0000e-14
Angular grids for H and He will be reduced by one unit
Partially contracted basis set               ... off
Rotationally invariant grid construction     ... off

Total number of grid points                  ...     2361
Total number of batches                      ...       38
Average number of points per batch           ...       62
Average number of grid points per atom       ...      787

CP-SCF GRIDX
------------

General Integration Accuracy     IntAcc      ... 3.067
Radial Grid Type                 RadialGrid  ... OptM3 with GC (2021)
Angular Grid (max. ang.)         AngularGrid ... 1 (Lebedev-50)
Angular grid pruning method      GridPruning ... 4 (adaptive)
Weight generation scheme         WeightScheme... Becke
Basis function cutoff            BFCut       ... 1.0000e-11
Integration weight cutoff        WCut        ... 1.0000e-14
Angular grids for H and He will be reduced by one unit
Partially contracted basis set               ... on
Rotationally invariant grid construction     ... off

Total number of grid points                  ...     1051
Total number of batches                      ...       17
Average number of points per batch           ...       61
Average number of grid points per atom       ...      350

Memory available               ... 1015.8 MB
Memory needed per perturbation ...   0.2 MB
Perturbations treated per batch... 3
Number of batches              ... 1
     CP-SCF ITERATION   0:   4.2321e-01 (   0.1 sec   0/  3 done)
     CP-SCF ITERATION   1:   1.4707e-02 (   0.1 sec   0/  3 done)
     CP-SCF ITERATION   2:   7.8314e-04 (   0.1 sec   0/  3 done)
     CP-SCF ITERATION   3:   9.9428e-05 (   0.1 sec   3/  3 done)
                    *** THE CP-SCF HAS CONVERGED ***

Forming final perturbed densities           ... done
Transforming perturbed density to AO basis  ... done

Magnetic field perturbation calculated in  0.697 sec

---------------
CHEMICAL SHIFTS
---------------

Note: using conversion factor for au to ppm alpha^2/2 =   26.625677252 
GIAO: Analytic para- and diamagnetic shielding integrals (SHARK)       ...done
 --------------
 Nucleus   0N :
 --------------

Diamagnetic contribution to the shielding tensor (ppm) : 
           329.024         -8.580       -11.143
            -1.251        303.995         0.549
           -11.917         -8.051       328.312

Paramagnetic contribution to the shielding tensor (ppm): 
          -351.320          9.928      -126.349
             2.600       -299.504         6.260
          -276.892         22.353      -105.700

Total shielding tensor (ppm): 
           -22.297          1.347      -137.492
             1.348          4.491         6.809
          -288.809         14.302       222.612


 Diagonalized sT*s matrix:
 
 sDSO           303.569          317.570          340.192  iso=     320.444
 sPSO          -299.010         -413.677          -43.836  iso=    -252.175
        ---------------  ---------------  ---------------
 Total            4.559          -96.107          296.355  iso=      68.269

 --------------
 Nucleus   1C :
 --------------

Diamagnetic contribution to the shielding tensor (ppm) : 
           261.475         -0.040        -9.848
            -0.297        255.545         0.481
            -5.584          0.874       268.458

Paramagnetic contribution to the shielding tensor (ppm): 
          -261.297        -13.422      -227.542
           -13.176       -526.903        11.269
          -151.528          6.889      -184.192

Total shielding tensor (ppm): 
             0.178        -13.462      -237.390
           -13.474       -271.358        11.750
          -157.112          7.763        84.265


 Diagonalized sT*s matrix:
 
 sDSO           257.690          272.244          255.543  iso=     261.826
 sPSO          -361.886          -82.939         -527.567  iso=    -324.131
        ---------------  ---------------  ---------------
 Total         -104.195          189.305         -272.024  iso=     -62.305

 --------------
 Nucleus   2H :
 --------------

Diamagnetic contribution to the shielding tensor (ppm) : 
            39.519         -4.890        -3.330
            -1.221         15.085         0.166
            -2.038         -1.960        20.116

Paramagnetic contribution to the shielding tensor (ppm): 
           -12.470          4.645         0.130
             0.976          7.003        -0.008
            -9.237          2.519         1.680

Total shielding tensor (ppm): 
            27.048         -0.245        -3.200
            -0.245         22.088         0.158
           -11.275          0.559        21.797


 Diagonalized sT*s matrix:
 
 sDSO            22.826           14.843           37.052  iso=      24.907
 sPSO            -6.003            7.234           -5.017  iso=      -1.262
        ---------------  ---------------  ---------------
 Total           16.823           22.076           32.035  iso=      23.644



--------------------------------
CHEMICAL SHIELDING SUMMARY (ppm)
--------------------------------


  Nucleus  Element    Isotropic     Anisotropy
  -------  -------  ------------   ------------
      0       N           68.269        342.129 
      1       C          -62.305       -314.579 
      2       H           23.644         12.585 



Maximum memory used throughout the entire EPRNMR-calculation: 10.2 MB

----------------------------------------------------------------------------
                           ORCA NUMERICAL FREQUENCIES
                              (5-process run)
----------------------------------------------------------------------------

Number of atoms                ... 3
Central differences            ... used
Number of displacements        ... 18
Numerical increment            ... 5.000e-03 bohr
IR-spectrum generation         ... on
Raman-spectrum generation      ... off
Surface Crossing Hessian       ... off

The output will be reduced. Please look at the following files:
SCF program output             ... >CNH_120.lastscf
Integral program output        ... >CNH_120.lastint
Gradient program output        ... >CNH_120.lastgrad
Dipole moment program output   ... >CNH_120.lastmom
AutoCI program output          ... >CNH_120.lastautoci

	<< Calculating on displaced geometry   1 (of  18) >>
	<< Calculating on displaced geometry   3 (of  18) >>
	<< Calculating on displaced geometry   2 (of  18) >>
	<< Calculating on displaced geometry   4 (of  18) >>
	<< Calculating on displaced geometry   5 (of  18) >>
	<< Calculating on displaced geometry   6 (of  18) >>
	<< Calculating on displaced geometry   8 (of  18) >>
	<< Calculating on displaced geometry   7 (of  18) >>
	<< Calculating on displaced geometry   9 (of  18) >>
	<< Calculating on displaced geometry  10 (of  18) >>
	<< Calculating on displaced geometry  11 (of  18) >>
	<< Calculating on displaced geometry  12 (of  18) >>
	<< Calculating on displaced geometry  14 (of  18) >>
	<< Calculating on displaced geometry  15 (of  18) >>
	<< Calculating on displaced geometry  13 (of  18) >>
	<< Calculating on displaced geometry  18 (of  18) >>
	<< Calculating on displaced geometry  16 (of  18) >>
	<< Calculating on displaced geometry  17 (of  18) >>

-----------------------
VIBRATIONAL FREQUENCIES
-----------------------

Scaling factor for frequencies =  1.000000000 (already applied!)

   0:         0.00 cm**-1
   1:         0.00 cm**-1
   2:         0.00 cm**-1
   3:         0.00 cm**-1
   4:         0.00 cm**-1
   5:         0.00 cm**-1
   6:       701.17 cm**-1
   7:      2215.50 cm**-1
   8:      3156.68 cm**-1


------------
NORMAL MODES
------------

These modes are the cartesian displacements weighted by the diagonal matrix
M(i,i)=1/sqrt(m[i]) where m[i] is the mass of the displaced atom
Thus, these vectors are normalized but *not* orthogonal

                  0          1          2          3          4          5    
      0       0.000000   0.000000   0.000000   0.000000   0.000000   0.000000
      1       0.000000   0.000000   0.000000   0.000000   0.000000   0.000000
      2       0.000000   0.000000   0.000000   0.000000   0.000000   0.000000
      3       0.000000   0.000000   0.000000   0.000000   0.000000   0.000000
      4       0.000000   0.000000   0.000000   0.000000   0.000000   0.000000
      5       0.000000   0.000000   0.000000   0.000000   0.000000   0.000000
      6       0.000000   0.000000   0.000000   0.000000   0.000000   0.000000
      7       0.000000   0.000000   0.000000   0.000000   0.000000   0.000000
      8       0.000000   0.000000   0.000000   0.000000   0.000000   0.000000
                  6          7          8    
      0      -0.066036   0.231227   0.078286
      1       0.003278  -0.011432  -0.003878
      2      -0.090148  -0.436329  -0.025621
      3       0.074873  -0.318257  -0.007975
      4      -0.003712   0.015739   0.000394
      5       0.022017   0.525958   0.024283
      6       0.025467   0.579152  -0.992814
      7      -0.001324  -0.028689   0.049199
      8       0.990327  -0.203991   0.066675


-----------
IR SPECTRUM
-----------

 Mode   freq       eps      Int      T**2         TX        TY        TZ
       cm**-1   L/(mol*cm) km/mol    a.u.
----------------------------------------------------------------------------
  6:    701.17   0.034969  176.72  0.015564  (-0.041870  0.002065  0.117500)
  7:   2215.50   0.016960   85.71  0.002389  (-0.016587  0.000832  0.045968)
  8:   3156.68   0.040502  204.68  0.004004  (-0.061347  0.003003  0.015216)

* The epsilon (eps) is given for a Dirac delta lineshape.
** The dipole moment derivative (T) already includes vibrational overlap.

The first frequency considered to be a vibration is 6
The total number of vibrations considered is 3


--------------------------
THERMOCHEMISTRY AT 298.15K
--------------------------

Temperature         ... 298.15 K
Pressure            ... 1.00 atm
Total Mass          ... 27.03 AMU

Throughout the following assumptions are being made:
  (1) The electronic state is orbitally nondegenerate
  (2) There are no thermally accessible electronically excited states
  (3) Hindered rotations indicated by low frequency modes are not
      treated as such but are treated as vibrations and this may
      cause some error
  (4) All equations used are the standard statistical mechanics
      equations for an ideal gas
  (5) All vibrations are strictly harmonic

freq.     701.17  E(vib)   ...       0.07 
freq.    2215.50  E(vib)   ...       0.00 
freq.    3156.68  E(vib)   ...       0.00 

------------
INNER ENERGY
------------

The inner energy is: U= E(el) + E(ZPE) + E(vib) + E(rot) + E(trans)
    E(el)   - is the total energy from the electronic structure calculation
              = E(kin-el) + E(nuc-el) + E(el-el) + E(nuc-nuc)
    E(ZPE)  - the the zero temperature vibrational energy from the frequency calculation
    E(vib)  - the the finite temperature correction to E(ZPE) due to population
              of excited vibrational states
    E(rot)  - is the rotational thermal energy
    E(trans)- is the translational thermal energy

Summary of contributions to the inner energy U:
Electronic energy                ...    -93.30587899 Eh
Zero point energy                ...      0.01383609 Eh       8.68 kcal/mol
Thermal vibrational correction   ...      0.00011243 Eh       0.07 kcal/mol
Thermal rotational correction    ...      0.00141627 Eh       0.89 kcal/mol
Thermal translational correction ...      0.00141627 Eh       0.89 kcal/mol
-----------------------------------------------------------------------
Total thermal energy                    -93.28909793 Eh


Summary of corrections to the electronic energy:
(perhaps to be used in another calculation)
Total thermal correction                  0.00294497 Eh       1.85 kcal/mol
Non-thermal (ZPE) correction              0.01383609 Eh       8.68 kcal/mol
-----------------------------------------------------------------------
Total correction                          0.01678107 Eh      10.53 kcal/mol


--------
ENTHALPY
--------

The enthalpy is H = U + kB*T
                kB is Boltzmann's constant
Total free energy                 ...    -93.28909793 Eh 
Thermal Enthalpy correction       ...      0.00094421 Eh       0.59 kcal/mol
-----------------------------------------------------------------------
Total Enthalpy                    ...    -93.28815372 Eh


Note: Rotational entropy computed according to Herzberg 
Infrared and Raman Spectra, Chapter V,1, Van Nostrand Reinhold, 1945 
Point Group:  Cs, Symmetry Number:   1  
Rotational constants in cm-1:    23.401347     1.712118     1.595393 

Vibrational entropy computed according to the QRRHO of S. Grimme
Chem.Eur.J. 2012 18 9955


-------
ENTROPY
-------

The entropy contributions are T*S = T*(S(el)+S(vib)+S(rot)+S(trans))
     S(el)   - electronic entropy
     S(vib)  - vibrational entropy
     S(rot)  - rotational entropy
     S(trans)- translational entropy
The entropies will be listed as multiplied by the temperature to get
units of energy

Electronic entropy                ...      0.00000000 Eh      0.00 kcal/mol
Vibrational entropy               ...      0.00014516 Eh      0.09 kcal/mol
Rotational entropy                ...      0.00754803 Eh      4.74 kcal/mol
Translational entropy             ...      0.01701823 Eh     10.68 kcal/mol
-----------------------------------------------------------------------
Final entropy term                ...      0.02471142 Eh     15.51 kcal/mol

In case the symmetry of your molecule has not been determined correctly
or in case you have a reason to use a different symmetry number we print 
out the resulting rotational entropy values for sn=1,12 :
 --------------------------------------------------------
|  sn= 1 | S(rot)=       0.00754803 Eh      4.74 kcal/mol|
|  sn= 2 | S(rot)=       0.00689357 Eh      4.33 kcal/mol|
|  sn= 3 | S(rot)=       0.00651074 Eh      4.09 kcal/mol|
|  sn= 4 | S(rot)=       0.00623911 Eh      3.92 kcal/mol|
|  sn= 5 | S(rot)=       0.00602843 Eh      3.78 kcal/mol|
|  sn= 6 | S(rot)=       0.00585628 Eh      3.67 kcal/mol|
|  sn= 7 | S(rot)=       0.00571073 Eh      3.58 kcal/mol|
|  sn= 8 | S(rot)=       0.00558466 Eh      3.50 kcal/mol|
|  sn= 9 | S(rot)=       0.00547345 Eh      3.43 kcal/mol|
|  sn=10 | S(rot)=       0.00537397 Eh      3.37 kcal/mol|
|  sn=11 | S(rot)=       0.00528398 Eh      3.32 kcal/mol|
|  sn=12 | S(rot)=       0.00520182 Eh      3.26 kcal/mol|
 --------------------------------------------------------


-------------------
GIBBS FREE ENERGY
-------------------

The Gibbs free energy is G = H - T*S

Total enthalpy                    ...    -93.28815372 Eh 
Total entropy correction          ...     -0.02471142 Eh    -15.51 kcal/mol
-----------------------------------------------------------------------
Final Gibbs free energy         ...    -93.31286514 Eh

For completeness - the Gibbs free energy minus the electronic energy
G-E(el)                           ...     -0.00698614 Eh     -4.38 kcal/mol



Timings for individual modules:

Sum of individual times         ...       73.007 sec (=   1.217 min)
GTO integral calculation        ...        4.666 sec (=   0.078 min)   6.4 %
SCF iterations                  ...        7.233 sec (=   0.121 min)   9.9 %
EPR/NMR calculation             ...        2.410 sec (=   0.040 min)   3.3 %
SCF Gradient evaluation         ...        3.984 sec (=   0.066 min)   5.5 %
Numerical frequency calculation ...       54.714 sec (=   0.912 min)  74.9 %
                             ****ORCA TERMINATED NORMALLY****
TOTAL RUN TIME: 0 days 0 hours 1 minutes 6 seconds 415 msec
