
                                 *****************
                                 * O   R   C   A *
                                 *****************

           --- An Ab Initio, DFT and Semiempirical electronic structure package ---

                  #######################################################
                  #                        -***-                        #
                  #          Department of theory and spectroscopy      #
                  #               Directorship: Frank Neese             #
                  #        Max Planck Institute fuer Kohlenforschung    #
                  #                Kaiser Wilhelm Platz 1               #
                  #                 D-45470 Muelheim/Ruhr               #
                  #                      Germany                        #
                  #                                                     #
                  #                  All rights reserved                #
                  #                        -***-                        #
                  #######################################################


                         Program Version 4.2.1 -  RELEASE  -


 With contributions from (in alphabetic order):
   Daniel Aravena         : Magnetic Suceptibility
   Michael Atanasov       : Ab Initio Ligand Field Theory (pilot matlab implementation)
   Alexander A. Auer      : GIAO ZORA, VPT2
   Ute Becker             : Parallelization
   Giovanni Bistoni       : ED, misc. LED, open-shell LED, HFLD
   Martin Brehm           : Molecular dynamics
   Dmytro Bykov           : SCF Hessian
   Vijay G. Chilkuri      : MRCI spin determinant printing, contributions to CSF-ICE
   Dipayan Datta          : RHF DLPNO-CCSD density
   Achintya Kumar Dutta   : EOM-CC, STEOM-CC
   Dmitry Ganyushin       : Spin-Orbit,Spin-Spin,Magnetic field MRCI
   Miquel Garcia          : C-PCM Hessian, Gaussian charge scheme
   Yang Guo               : DLPNO-NEVPT2, CIM, IAO-localization
   Andreas Hansen         : Spin unrestricted coupled pair/coupled cluster methods
   Benjamin Helmich-Paris : CASSCF linear response (MC-RPA)
   Lee Huntington         : MR-EOM, pCC
   Robert Izsak           : Overlap fitted RIJCOSX, COSX-SCS-MP3, EOM
   Christian Kollmar      : KDIIS, OOCD, Brueckner-CCSD(T), CCSD density
   Simone Kossmann        : Meta GGA functionals, TD-DFT gradient, OOMP2, MP2 Hessian
   Martin Krupicka        : AUTO-CI
   Lucas Lang             : DCDCAS
   Dagmar Lenk            : GEPOL surface, SMD
   Dimitrios Liakos       : Extrapolation schemes; Compound Job, initial MDCI parallelization
   Dimitrios Manganas     : Further ROCIS development; embedding schemes
   Dimitrios Pantazis     : SARC Basis sets
   Taras Petrenko         : DFT Hessian,TD-DFT gradient, ASA, ECA, R-Raman, ABS, FL, XAS/XES, NRVS
   Peter Pinski           : DLPNO-MP2, DLPNO-MP2 Gradient
   Christoph Reimann      : Effective Core Potentials
   Marius Retegan         : Local ZFS, SOC
   Christoph Riplinger    : Optimizer, TS searches, QM/MM, DLPNO-CCSD(T), (RO)-DLPNO pert. Triples
   Tobias Risthaus        : Range-separated hybrids, TD-DFT gradient, RPA, STAB
   Michael Roemelt        : Original ROCIS implementation
   Masaaki Saitow         : Open-shell DLPNO-CCSD energy and density
   Barbara Sandhoefer     : DKH picture change effects
   Avijit Sen             : IP-ROCIS
   Kantharuban Sivalingam : CASSCF convergence, NEVPT2, FIC-MRCI
   Bernardo de Souza      : ESD, SOC TD-DFT
   Georgi Stoychev        : AutoAux, RI-MP2 NMR
   Willem Van den Heuvel  : Paramagnetic NMR
   Boris Wezisla          : Elementary symmetry handling
   Frank Wennmohs         : Technical directorship


 We gratefully acknowledge several colleagues who have allowed us to
 interface, adapt or use parts of their codes:
   Stefan Grimme, W. Hujo, H. Kruse,             : VdW corrections, initial TS optimization,
                  C. Bannwarth                     DFT functionals, gCP, sTDA/sTD-DF
   Ed Valeev, F. Pavosevic, A. Kumar             : LibInt (2-el integral package), F12 methods
   Garnet Chan, S. Sharma, J. Yang, R. Olivares  : DMRG
   Ulf Ekstrom                                   : XCFun DFT Library
   Mihaly Kallay                                 : mrcc  (arbitrary order and MRCC methods)
   Andreas Klamt, Michael Diedenhofen            : otool_cosmo (COSMO solvation model)
   Jiri Pittner, Ondrej Demel                    : Mk-CCSD
   Frank Weinhold                                : gennbo (NPA and NBO analysis)
   Christopher J. Cramer and Donald G. Truhlar   : smd solvation model
   Lars Goerigk                                  : TD-DFT with DH, B97 family of functionals
   V. Asgeirsson, H. Jonsson                     : NEB implementation
   FAccTs GmbH                                   : IRC, NEB, NEB-TS, Multilevel, MM, QM/MM, CI optimization
   S Lehtola, MJT Oliveira, MAL Marques          : LibXC Library


 Your calculation uses the libint2 library for the computation of 2-el integrals
 For citations please refer to: http://libint.valeyev.net

 Your ORCA version has been built with support for libXC version: 4.2.3
 For citations please refer to: https://tddft.org/programs/libxc/

 This ORCA versions uses:
   CBLAS   interface :  Fast vector & matrix operations
   LAPACKE interface :  Fast linear algebra routines


SCAN-COORDS
----- Orbital basis set information -----
Your calculation utilizes the basis: def2-TZVP
   F. Weigend and R. Ahlrichs, Phys. Chem. Chem. Phys. 7, 3297 (2005).

----- AuxJ basis set information -----
Your calculation utilizes the auxiliary basis: def2/J
   F. Weigend, Phys. Chem. Chem. Phys. 8, 1057 (2006).

================================================================================
                                        WARNINGS
                       Please study these warnings very carefully!
================================================================================


WARNING: The environment variable RSH_COMMAND is not set!
  ===> : All Displacements for the Numerical Hessian calculation
         will be started on localhost

WARNING: Geometry Optimization
  ===> : Switching off AutoStart
         For restart on a previous wavefunction, please use MOREAD

INFO   : the flag for use of LIBINT has been found!

================================================================================
                                       INPUT FILE
================================================================================
NAME = SO2_PBE.inp
|  1> ! PAL5 PBE
|  2> %method
|  3>         method DFT
|  4>         runtyp OPT
|  5> 	#func VWN
|  6> end
|  7> 
|  8> %basis
|  9>         basis "def2-TZVP"
| 10> end
| 11> ! NumFreq
| 12> %output
| 13>         XYZFile true
| 14> end
| 15> %coords
| 16>         CTyp xyz
| 17>         Charge 0
| 18>         Mult 1
| 19>         Units Angs
| 20>         coords
| 21>         S       -1.3964703605      0.5346218729     -0.0392481365                 
| 22> 	O        0.1725606238      0.5123737189     -0.0821591799                 
| 23> 	O       -1.9650463708      1.2081038033      1.2597276053
| 24>         end
| 25> endd                         ****END OF INPUT****
================================================================================

                       *****************************
                       * Geometry Optimization Run *
                       *****************************

Geometry optimization settings:
Update method            Update   .... BFGS
Choice of coordinates    CoordSys .... Z-matrix Internals
Initial Hessian          InHess   .... Almoef's Model

Convergence Tolerances:
Energy Change            TolE     ....  5.0000e-06 Eh
Max. Gradient            TolMAXG  ....  3.0000e-04 Eh/bohr
RMS Gradient             TolRMSG  ....  1.0000e-04 Eh/bohr
Max. Displacement        TolMAXD  ....  4.0000e-03 bohr
RMS Displacement         TolRMSD  ....  2.0000e-03 bohr
Strict Convergence                ....  False
------------------------------------------------------------------------------
                        ORCA OPTIMIZATION COORDINATE SETUP
------------------------------------------------------------------------------

The optimization will be done in new redundant internal coordinates
Making redundant internal coordinates   ...  (new redundants) done
Evaluating the initial hessian          ...  (Almloef) done
Evaluating the coordinates              ...  done
Calculating the B-matrix                .... done
Calculating the G-matrix                .... done
Diagonalizing the G-matrix              .... done
The first mode is                       ....    0
The number of degrees of freedom        ....    3

    -----------------------------------------------------------------
                    Redundant Internal Coordinates


    -----------------------------------------------------------------
         Definition                    Initial Value    Approx d2E/dq
    -----------------------------------------------------------------
      1. B(O   1,S   0)                  1.5698         0.779513   
      2. B(O   2,S   0)                  1.5698         0.779513   
      3. A(O   1,S   0,O   2)          113.0000         0.521263   
    -----------------------------------------------------------------

Number of atoms                         .... 3
Number of degrees of freedom            .... 3

         *************************************************************
         *                GEOMETRY OPTIMIZATION CYCLE   1            *
         *************************************************************
---------------------------------
CARTESIAN COORDINATES (ANGSTROEM)
---------------------------------
  S     -1.396470    0.534622   -0.039248
  O      0.172561    0.512374   -0.082159
  O     -1.965046    1.208104    1.259728

----------------------------
CARTESIAN COORDINATES (A.U.)
----------------------------
  NO LB      ZA    FRAG     MASS         X           Y           Z
   0 S    16.0000    0    32.060   -2.638947    1.010289   -0.074168
   1 O     8.0000    0    15.999    0.326092    0.968246   -0.155258
   2 O     8.0000    0    15.999   -3.713399    2.282985    2.380540

--------------------------------
INTERNAL COORDINATES (ANGSTROEM)
--------------------------------
 S      0   0   0     0.000000000000     0.00000000     0.00000000
 O      1   0   0     1.569775323954     0.00000000     0.00000000
 O      1   2   0     1.569775324003   112.99999967     0.00000000

---------------------------
INTERNAL COORDINATES (A.U.)
---------------------------
 S      0   0   0     0.000000000000     0.00000000     0.00000000
 O      1   0   0     2.966445454061     0.00000000     0.00000000
 O      1   2   0     2.966445454153   112.99999967     0.00000000

---------------------
BASIS SET INFORMATION
---------------------
There are 2 groups of distinct atoms

 Group   1 Type S   : 14s9p3d1f contracted to 5s5p2d1f pattern {73211/51111/21/1}
 Group   2 Type O   : 11s6p2d1f contracted to 5s3p2d1f pattern {62111/411/11/1}

Atom   0S    basis set group =>   1
Atom   1O    basis set group =>   2
Atom   2O    basis set group =>   2
---------------------------------
AUXILIARY/J BASIS SET INFORMATION
---------------------------------
There are 2 groups of distinct atoms

 Group   1 Type S   : 14s5p5d2f1g contracted to 8s4p3d1f1g pattern {71111111/2111/311/2/1}
 Group   2 Type O   : 12s5p4d2f1g contracted to 6s4p3d1f1g pattern {711111/2111/211/2/1}

Atom   0S    basis set group =>   1
Atom   1O    basis set group =>   2
Atom   2O    basis set group =>   2


           ************************************************************
           *        Program running with 5 parallel MPI-processes     *
           *              working on a common directory               *
           ************************************************************
------------------------------------------------------------------------------
                           ORCA GTO INTEGRAL CALCULATION
                           -- RI-GTO INTEGRALS CHOSEN --
------------------------------------------------------------------------------

                         BASIS SET STATISTICS AND STARTUP INFO

Gaussian basis set:
 # of primitive gaussian shells          ...   67
 # of primitive gaussian functions       ...  155
 # of contracted shells                  ...   35
 # of contracted basis functions         ...   99
 Highest angular momentum                ...    3
 Maximum contraction depth               ...    7
Auxiliary gaussian basis set:
 # of primitive gaussian shells          ...   75
 # of primitive gaussian functions       ...  217
 # of contracted shells                  ...   47
 # of contracted aux-basis functions     ...  149
 Highest angular momentum                ...    4
 Maximum contraction depth               ...    7
Ratio of auxiliary to basis functions    ...  1.51
Integral package used                  ... LIBINT
 One Electron integrals                  ... done
 Ordering auxiliary basis shells         ... done
 Integral threshhold             Thresh  ...  2.500e-11
 Primitive cut-off               TCut    ...  2.500e-12
 Pre-screening matrix                    ... done
 Shell pair data                         ... 
 Ordering of the shell pairs             ... done (   0.000 sec) 606 of 630 pairs
 Determination of significant pairs      ... done (   0.000 sec)
 Creation of shell pair data             ... done (   0.000 sec)
 Storage of shell pair data              ... done (   0.037 sec)
 Shell pair data done in (   0.038 sec)
 Computing two index integrals           ... done
 Cholesky decomposition of the V-matrix  ... done


Timings:
 Total evaluation time                   ...   0.244 sec (  0.004 min)
 One electron matrix time                ...   0.028 sec (  0.000 min) = 11.5%
 Schwartz matrix evaluation time         ...   0.121 sec (  0.002 min) = 49.6%
 Two index repulsion integral time       ...   0.002 sec (  0.000 min) =  0.8%
 Cholesky decomposition of V             ...   0.024 sec (  0.000 min) =  9.8%



           ************************************************************
           *        Program running with 5 parallel MPI-processes     *
           *              working on a common directory               *
           ************************************************************
-------------------------------------------------------------------------------
                                 ORCA SCF
-------------------------------------------------------------------------------

------------
SCF SETTINGS
------------
Hamiltonian:
 Density Functional     Method          .... DFT(GTOs)
 Exchange Functional    Exchange        .... PBE
   PBE kappa parameter   XKappa         ....  0.804000
   PBE mue parameter    XMuePBE         ....  0.219520
 Correlation Functional Correlation     .... PBE
   PBE beta parameter  CBetaPBE         ....  0.066725
 LDA part of GGA corr.  LDAOpt          .... PW91-LDA
 Gradients option       PostSCFGGA      .... off
   Density functional embedding theory  .... OFF
   NL short-range parameter             ....  6.400000
 RI-approximation to the Coulomb term is turned on
   Number of auxiliary basis functions  .... 149


General Settings:
 Integral files         IntName         .... SO2_PBE
 Hartree-Fock type      HFTyp           .... RHF
 Total Charge           Charge          ....    0
 Multiplicity           Mult            ....    1
 Number of Electrons    NEL             ....   32
 Basis Dimension        Dim             ....   99
 Nuclear Repulsion      ENuc            ....     99.2347787323 Eh

Convergence Acceleration:
 DIIS                   CNVDIIS         .... on
   Start iteration      DIISMaxIt       ....    12
   Startup error        DIISStart       ....  0.200000
   # of expansion vecs  DIISMaxEq       ....     5
   Bias factor          DIISBfac        ....   1.050
   Max. coefficient     DIISMaxC        ....  10.000
 Newton-Raphson         CNVNR           .... off
 SOSCF                  CNVSOSCF        .... on
   Start iteration      SOSCFMaxIt      ....   150
   Startup grad/error   SOSCFStart      ....  0.003300
 Level Shifting         CNVShift        .... on
   Level shift para.    LevelShift      ....    0.2500
   Turn off err/grad.   ShiftErr        ....    0.0010
 Zerner damping         CNVZerner       .... off
 Static damping         CNVDamp         .... on
   Fraction old density DampFac         ....    0.7000
   Max. Damping (<1)    DampMax         ....    0.9800
   Min. Damping (>=0)   DampMin         ....    0.0000
   Turn off err/grad.   DampErr         ....    0.1000
 Fernandez-Rico         CNVRico         .... off

SCF Procedure:
 Maximum # iterations   MaxIter         ....   125
 SCF integral mode      SCFMode         .... Direct
   Integral package                     .... LIBINT
 Reset frequency        DirectResetFreq ....    20
 Integral Threshold     Thresh          ....  2.500e-11 Eh
 Primitive CutOff       TCut            ....  2.500e-12 Eh

Convergence Tolerance:
 Convergence Check Mode ConvCheckMode   .... Total+1el-Energy
 Convergence forced     ConvForced      .... 0
 Energy Change          TolE            ....  1.000e-08 Eh
 1-El. energy change                    ....  1.000e-05 Eh
 Orbital Gradient       TolG            ....  1.000e-05
 Orbital Rotation angle TolX            ....  1.000e-05
 DIIS Error             TolErr          ....  5.000e-07


Diagonalization of the overlap matrix:
Smallest eigenvalue                        ... 2.852e-03
Time for diagonalization                   ...    0.004 sec
Threshold for overlap eigenvalues          ... 1.000e-08
Number of eigenvalues below threshold      ... 0
Time for construction of square roots      ...    0.009 sec
Total time needed                          ...    0.013 sec

-------------------
DFT GRID GENERATION
-------------------

General Integration Accuracy     IntAcc      ...  4.340
Radial Grid Type                 RadialGrid  ... Gauss-Chebyshev
Angular Grid (max. acc.)         AngularGrid ... Lebedev-110
Angular grid pruning method      GridPruning ... 3 (G Style)
Weight generation scheme         WeightScheme... Becke
Basis function cutoff            BFCut       ...    1.0000e-11
Integration weight cutoff        WCut        ...    1.0000e-14
Grids for H and He will be reduced by one unit

# of grid points (after initial pruning)     ...   5238 (   0.0 sec)
# of grid points (after weights+screening)   ...   5195 (   0.0 sec)
nearest neighbour list constructed           ...    0.0 sec
Grid point re-assignment to atoms done       ...    0.0 sec
Grid point division into batches done        ...    0.0 sec
Reduced shell lists constructed in    0.0 sec

Total number of grid points                  ...     5195
Total number of batches                      ...       82
Average number of points per batch           ...       63
Average number of grid points per atom       ...     1732
Average number of shells per batch           ...    25.83 (73.81%)
Average number of basis functions per batch  ...    77.94 (78.73%)
Average number of large shells per batch     ...    22.72 (87.96%)
Average number of large basis fcns per batch ...    68.83 (88.31%)
Maximum spatial batch extension              ...  18.39, 17.75, 17.75 au
Average spatial batch extension              ...   1.35,  1.39,  1.33 au

Time for grid setup =    0.046 sec

------------------------------
INITIAL GUESS: MODEL POTENTIAL
------------------------------
Loading Hartree-Fock densities                     ... done
Calculating cut-offs                               ... done
Setting up the integral package                    ... done
Initializing the effective Hamiltonian             ... done
Starting the Coulomb interaction                   ... done (   0.0 sec)
Reading the grid                                   ... done
Mapping shells                                     ... done
Starting the XC term evaluation                    ... done (   0.0 sec)
  promolecular density results
     # of electrons  =     32.000144950
     EX              =    -41.117460329
     EC              =     -1.156736588
     EX+EC           =    -42.274196917
Transforming the Hamiltonian                       ... done (   0.0 sec)
Diagonalizing the Hamiltonian                      ... done (   0.0 sec)
Back transforming the eigenvectors                 ... done (   0.0 sec)
Now organizing SCF variables                       ... done
                      ------------------
                      INITIAL GUESS DONE (   0.2 sec)
                      ------------------
--------------
SCF ITERATIONS
--------------
ITER       Energy         Delta-E        Max-DP      RMS-DP      [F,P]     Damp
               ***  Starting incremental Fock matrix formation  ***
  0   -548.1081185351   0.000000000000 0.14137018  0.00407095  0.3210560 0.7000
  1   -548.2627856533  -0.154667118190 0.05823517  0.00168040  0.0535141 0.7000
                               ***Turning on DIIS***
  2   -548.2788210240  -0.016035370663 0.10529085  0.00210563  0.0594274 0.0000
  3   -548.3771647740  -0.098343750050 0.02658501  0.00081593  0.0251598 0.0000
  4   -548.3795243817  -0.002359607657 0.01670146  0.00036056  0.0141583 0.0000
  5   -548.3799798167  -0.000455434984 0.00265454  0.00009794  0.0040593 0.0000
                      *** Initiating the SOSCF procedure ***
                           *** Shutting down DIIS ***
                      *** Re-Reading the Fockian *** 
                      *** Removing any level shift *** 
ITER      Energy       Delta-E        Grad      Rot      Max-DP    RMS-DP
  6   -548.38002234  -0.0000425192  0.000481  0.000481  0.000901  0.000041
               *** Restarting incremental Fock matrix formation ***
  7   -548.38002591  -0.0000035731  0.000828  0.006579  0.002848  0.000109
  8   -548.37990738   0.0001185276  0.005802  0.006133  0.002379  0.000096
  9   -548.38002927  -0.0001218881  0.000084  0.000379  0.000204  0.000009
 10   -548.38002897   0.0000002957  0.000260  0.000290  0.000200  0.000006
 11   -548.38002933  -0.0000003525  0.000041  0.000082  0.000294  0.000006
 12   -548.38002932   0.0000000107  0.000047  0.000040  0.000158  0.000003
                  ***Gradient check signals convergence***
              ***Rediagonalizing the Fockian in SOSCF/NRSCF***

               *****************************************************
               *                     SUCCESS                       *
               *           SCF CONVERGED AFTER  13 CYCLES          *
               *****************************************************

Setting up the final grid:

General Integration Accuracy     IntAcc      ...  4.670
Radial Grid Type                 RadialGrid  ... Gauss-Chebyshev
Angular Grid (max. acc.)         AngularGrid ... Lebedev-302
Angular grid pruning method      GridPruning ... 3 (G Style)
Weight generation scheme         WeightScheme... Becke
Basis function cutoff            BFCut       ...    1.0000e-11
Integration weight cutoff        WCut        ...    1.0000e-14
Grids for H and He will be reduced by one unit

# of grid points (after initial pruning)     ...  19270 (   0.0 sec)
# of grid points (after weights+screening)   ...  19125 (   0.0 sec)
nearest neighbour list constructed           ...    0.0 sec
Grid point re-assignment to atoms done       ...    0.0 sec
Grid point division into batches done        ...    0.1 sec
Reduced shell lists constructed in    0.1 sec

Total number of grid points                  ...    19125
Total number of batches                      ...      300
Average number of points per batch           ...       63
Average number of grid points per atom       ...     6375
Average number of shells per batch           ...    22.75 (65.01%)
Average number of basis functions per batch  ...    69.15 (69.85%)
Average number of large shells per batch     ...    19.56 (85.95%)
Average number of large basis fcns per batch ...    59.39 (85.89%)
Maximum spatial batch extension              ...  16.41, 19.94, 16.60 au
Average spatial batch extension              ...   0.74,  0.85,  0.81 au

Final grid set up in    0.2 sec
Final integration                            ... done (   0.1 sec)
Change in XC energy                          ...     0.000186044
Integrated number of electrons               ...    31.999994068
Previous integrated no of electrons          ...    32.000151731

----------------
TOTAL SCF ENERGY
----------------

Total Energy       :         -548.37984331 Eh          -14922.17417 eV

Components:
Nuclear Repulsion  :           99.23477873 Eh            2700.31561 eV
Electronic Energy  :         -647.61462204 Eh          -17622.48978 eV
One Electron Energy:         -953.16808781 Eh          -25937.02228 eV
Two Electron Energy:          305.55346577 Eh            8314.53251 eV

Virial components:
Potential Energy   :        -1095.12739176 Eh          -29799.93133 eV
Kinetic Energy     :          546.74754845 Eh           14877.75716 eV
Virial Ratio       :            2.00298546


DFT components:
N(Alpha)           :       15.999997034176 electrons
N(Beta)            :       15.999997034176 electrons
N(Total)           :       31.999994068352 electrons
E(X)               :      -41.237511832356 Eh       
E(C)               :       -1.159617909356 Eh       
E(XC)              :      -42.397129741711 Eh       
DFET-embed. en.    :        0.000000000000 Eh       

---------------
SCF CONVERGENCE
---------------

  Last Energy change         ...   -3.9620e-08  Tolerance :   1.0000e-08
  Last MAX-Density change    ...    3.4338e-06  Tolerance :   1.0000e-07
  Last RMS-Density change    ...    1.5119e-07  Tolerance :   5.0000e-09
  Last Orbital Gradient      ...    1.7511e-06  Tolerance :   1.0000e-05
  Last Orbital Rotation      ...    5.8200e-06  Tolerance :   1.0000e-05

             **** THE GBW FILE WAS UPDATED (SO2_PBE.gbw) ****
             **** DENSITY FILE WAS UPDATED (SO2_PBE.scfp) ****
             **** ENERGY FILE WAS UPDATED (SO2_PBE.en.tmp) ****
             **** THE GBW FILE WAS UPDATED (SO2_PBE.gbw) ****
             **** DENSITY FILE WAS UPDATED (SO2_PBE.scfp) ****
----------------
ORBITAL ENERGIES
----------------

  NO   OCC          E(Eh)            E(eV) 
   0   2.0000     -88.230418     -2400.8717 
   1   2.0000     -18.816220      -512.0154 
   2   2.0000     -18.816108      -512.0123 
   3   2.0000      -7.835334      -213.2103 
   4   2.0000      -5.856565      -159.3652 
   5   2.0000      -5.856008      -159.3501 
   6   2.0000      -5.850611      -159.2032 
   7   2.0000      -0.997242       -27.1363 
   8   2.0000      -0.920722       -25.0541 
   9   2.0000      -0.608927       -16.5697 
  10   2.0000      -0.434420       -11.8212 
  11   2.0000      -0.420105       -11.4316 
  12   2.0000      -0.418852       -11.3976 
  13   2.0000      -0.320770        -8.7286 
  14   2.0000      -0.296651        -8.0723 
  15   2.0000      -0.296552        -8.0696 
  16   0.0000      -0.194936        -5.3045 
  17   0.0000      -0.035200        -0.9578 
  18   0.0000      -0.029579        -0.8049 
  19   0.0000       0.191440         5.2094 
  20   0.0000       0.199210         5.4208 
  21   0.0000       0.230923         6.2837 
  22   0.0000       0.271277         7.3818 
  23   0.0000       0.273220         7.4347 
  24   0.0000       0.297880         8.1057 
  25   0.0000       0.302622         8.2348 
  26   0.0000       0.359725         9.7886 
  27   0.0000       0.361282         9.8310 
  28   0.0000       0.433764        11.8033 
  29   0.0000       0.439397        11.9566 
  30   0.0000       0.473497        12.8845 
  31   0.0000       0.487991        13.2789 
  32   0.0000       0.511155        13.9092 
  33   0.0000       0.630335        17.1523 
  34   0.0000       0.675003        18.3678 
  35   0.0000       0.775790        21.1103 
  36   0.0000       1.175805        31.9953 
  37   0.0000       1.219694        33.1896 
  38   0.0000       1.235146        33.6100 
  39   0.0000       1.249061        33.9887 
  40   0.0000       1.295313        35.2473 
  41   0.0000       1.344311        36.5806 
  42   0.0000       1.362893        37.0862 
  43   0.0000       1.379715        37.5440 
  44   0.0000       1.390313        37.8324 
  45   0.0000       1.404667        38.2229 
  46   0.0000       1.472417        40.0665 
  47   0.0000       1.480423        40.2844 
  48   0.0000       1.616607        43.9901 
  49   0.0000       1.622590        44.1529 
  50   0.0000       1.644909        44.7602 
  51   0.0000       1.678704        45.6798 
  52   0.0000       1.759036        47.8658 
  53   0.0000       1.940694        52.8090 
  54   0.0000       2.009733        54.6876 
  55   0.0000       2.027600        55.1738 
  56   0.0000       2.108069        57.3635 
  57   0.0000       2.119877        57.6848 
  58   0.0000       2.188336        59.5477 
  59   0.0000       2.217173        60.3324 
  60   0.0000       2.248097        61.1738 
  61   0.0000       2.584842        70.3371 
  62   0.0000       2.589842        70.4732 
  63   0.0000       2.605915        70.9105 
  64   0.0000       2.672756        72.7294 
  65   0.0000       2.686795        73.1114 
  66   0.0000       2.737874        74.5013 
  67   0.0000       3.186480        86.7085 
  68   0.0000       3.688312       100.3641 
  69   0.0000       4.958572       134.9296 
  70   0.0000       4.969982       135.2401 
  71   0.0000       4.975297       135.3847 
  72   0.0000       4.975788       135.3981 
  73   0.0000       4.980719       135.5323 
  74   0.0000       4.994746       135.9139 
  75   0.0000       5.003112       136.1416 
  76   0.0000       5.051662       137.4627 
  77   0.0000       5.078806       138.2013 
  78   0.0000       5.159699       140.4025 
  79   0.0000       5.180961       140.9811 
  80   0.0000       5.184531       141.0783 
  81   0.0000       5.260818       143.1541 
  82   0.0000       5.361849       145.9033 
  83   0.0000       6.042274       164.4186 
  84   0.0000       6.077192       165.3688 
  85   0.0000       6.080356       165.4549 
  86   0.0000       6.094149       165.8302 
  87   0.0000       6.373488       173.4314 
  88   0.0000       6.389888       173.8777 
  89   0.0000       6.392205       173.9407 
  90   0.0000       6.468984       176.0300 
  91   0.0000       6.559125       178.4829 
  92   0.0000       6.643215       180.7711 
  93   0.0000       8.503895       231.4028 
  94   0.0000       8.751514       238.1408 
  95   0.0000       9.068679       246.7713 
  96   0.0000      19.428259       528.6698 
  97   0.0000      42.648987      1160.5379 
  98   0.0000      42.843455      1165.8297 

                    ********************************
                    * MULLIKEN POPULATION ANALYSIS *
                    ********************************

-----------------------
MULLIKEN ATOMIC CHARGES
-----------------------
   0 S :    0.593131
   1 O :   -0.296660
   2 O :   -0.296470
Sum of atomic charges:   -0.0000000

--------------------------------
MULLIKEN REDUCED ORBITAL CHARGES
--------------------------------
  0 S s       :     5.888125  s :     5.888125
      pz      :     3.025258  p :     8.987261
      px      :     2.910132
      py      :     3.051871
      dz2     :     0.085417  d :     0.485661
      dxz     :     0.154519
      dyz     :     0.048023
      dx2y2   :     0.089657
      dxy     :     0.108045
      f0      :     0.010251  f :     0.045823
      f+1     :     0.006894
      f-1     :     0.004546
      f+2     :     0.009063
      f-2     :     0.003267
      f+3     :     0.004165
      f-3     :     0.007637
  1 O s       :     3.891683  s :     3.891683
      pz      :     1.654125  p :     4.377076
      px      :     1.268608
      py      :     1.454342
      dz2     :     0.002916  d :     0.026627
      dxz     :     0.007226
      dyz     :     0.000065
      dx2y2   :     0.008364
      dxy     :     0.008056
      f0      :     0.000153  f :     0.001275
      f+1     :     0.000236
      f-1     :     0.000037
      f+2     :     0.000203
      f-2     :     0.000005
      f+3     :     0.000320
      f-3     :     0.000320
  2 O s       :     3.892199  s :     3.892199
      pz      :     1.349036  p :     4.376380
      px      :     1.655403
      py      :     1.371941
      dz2     :     0.008118  d :     0.026615
      dxz     :     0.006547
      dyz     :     0.007058
      dx2y2   :     0.002381
      dxy     :     0.002511
      f0      :     0.000266  f :     0.001276
      f+1     :     0.000282
      f-1     :     0.000228
      f+2     :     0.000183
      f-2     :     0.000226
      f+3     :     0.000048
      f-3     :     0.000043


                     *******************************
                     * LOEWDIN POPULATION ANALYSIS *
                     *******************************

----------------------
LOEWDIN ATOMIC CHARGES
----------------------
   0 S :    0.579197
   1 O :   -0.289690
   2 O :   -0.289508

-------------------------------
LOEWDIN REDUCED ORBITAL CHARGES
-------------------------------
  0 S s       :     5.403185  s :     5.403185
      pz      :     3.064613  p :     9.046284
      px      :     2.957554
      py      :     3.024117
      dz2     :     0.154532  d :     0.827774
      dxz     :     0.244453
      dyz     :     0.091301
      dx2y2   :     0.180917
      dxy     :     0.156571
      f0      :     0.026159  f :     0.143560
      f+1     :     0.027986
      f-1     :     0.017869
      f+2     :     0.021783
      f-2     :     0.011732
      f+3     :     0.020023
      f-3     :     0.018008
  1 O s       :     3.704080  s :     3.704080
      pz      :     1.618468  p :     4.521472
      px      :     1.467264
      py      :     1.435740
      dz2     :     0.009560  d :     0.060814
      dxz     :     0.011065
      dyz     :     0.000099
      dx2y2   :     0.027918
      dxy     :     0.012172
      f0      :     0.000262  f :     0.003324
      f+1     :     0.000776
      f-1     :     0.000054
      f+2     :     0.000405
      f-2     :     0.000012
      f+3     :     0.001168
      f-3     :     0.000646
  2 O s       :     3.704136  s :     3.704136
      pz      :     1.480881  p :     4.521232
      px      :     1.641792
      py      :     1.398560
      dz2     :     0.019154  d :     0.060814
      dxz     :     0.013640
      dyz     :     0.019066
      dx2y2   :     0.003994
      dxy     :     0.004960
      f0      :     0.000559  f :     0.003326
      f+1     :     0.000723
      f-1     :     0.000862
      f+2     :     0.000396
      f-2     :     0.000611
      f+3     :     0.000099
      f-3     :     0.000075


                      *****************************
                      * MAYER POPULATION ANALYSIS *
                      *****************************

  NA   - Mulliken gross atomic population
  ZA   - Total nuclear charge
  QA   - Mulliken gross atomic charge
  VA   - Mayer's total valence
  BVA  - Mayer's bonded valence
  FA   - Mayer's free valence

  ATOM       NA         ZA         QA         VA         BVA        FA
  0 S     15.4069    16.0000     0.5931     3.7135     3.7135    -0.0000
  1 O      8.2967     8.0000    -0.2967     2.1313     2.1313     0.0000
  2 O      8.2965     8.0000    -0.2965     2.1305     2.1305    -0.0000

  Mayer bond orders larger than 0.100000
B(  0-S ,  1-O ) :   1.8572 B(  0-S ,  2-O ) :   1.8564 B(  1-O ,  2-O ) :   0.2742 


-------
TIMINGS
-------

Total SCF time: 0 days 0 hours 0 min 4 sec 

Total time                  ....       4.650 sec
Sum of individual times     ....       4.287 sec  ( 92.2%)

Fock matrix formation       ....       3.693 sec  ( 79.4%)
  Split-RI-J                ....       2.480 sec  ( 67.2% of F)
  XC integration            ....       0.695 sec  ( 18.8% of F)
    Basis function eval.    ....       0.070 sec  ( 10.1% of XC)
    Density eval.           ....       0.067 sec  (  9.6% of XC)
    XC-Functional eval.     ....       0.016 sec  (  2.3% of XC)
    XC-Potential eval.      ....       0.076 sec  ( 10.9% of XC)
Diagonalization             ....       0.069 sec  (  1.5%)
Density matrix formation    ....       0.006 sec  (  0.1%)
Population analysis         ....       0.034 sec  (  0.7%)
Initial guess               ....       0.167 sec  (  3.6%)
Orbital Transformation      ....       0.000 sec  (  0.0%)
Orbital Orthonormalization  ....       0.000 sec  (  0.0%)
DIIS solution               ....       0.037 sec  (  0.8%)
SOSCF solution              ....       0.058 sec  (  1.2%)
Grid generation             ....       0.223 sec  (  4.8%)

-------------------------   --------------------
FINAL SINGLE POINT ENERGY      -548.379843310871
-------------------------   --------------------



           ************************************************************
           *        Program running with 5 parallel MPI-processes     *
           *              working on a common directory               *
           ************************************************************
------------------------------------------------------------------------------
                         ORCA SCF GRADIENT CALCULATION
------------------------------------------------------------------------------

Gradient of the Kohn-Sham DFT energy:
Kohn-Sham wavefunction type      ... RKS
Hartree-Fock exchange scaling    ...    0.000
Number of operators              ...    1
Number of atoms                  ...    3
Basis set dimensions             ...   99
Integral neglect threshold       ... 2.5e-11
Integral primitive cutoff        ... 2.5e-12

Nuclear repulsion gradient       ... done
One Electron Gradient            ... done
Pre-screening matrix             ... done
RI-J gradient                    ... done
Exchange-correlation gradient    ... done

------------------
CARTESIAN GRADIENT
------------------

   1   S   :   -0.062990882   -0.041044015   -0.079042038
   2   O   :    0.086742217    0.002511641    0.004833240
   3   O   :   -0.023751334    0.038532374    0.074208798

Difference to translation invariance:
           :   -0.0000000000    0.0000000000    0.0000000000

Norm of the cartesian gradient     ...    0.1643465919
RMS gradient                       ...    0.0547821973
MAX gradient                       ...    0.0867422165

-------
TIMINGS
-------

Total SCF gradient time            ...        0.663 sec

One electron gradient       ....       0.008 sec  (  1.2%)
Prescreening matrices       ....       0.062 sec  (  9.4%)
RI-J Coulomb gradient       ....       0.176 sec  ( 26.5%)
XC gradient                 ....       0.172 sec  ( 25.9%)
------------------------------------------------------------------------------
                         ORCA GEOMETRY RELAXATION STEP
------------------------------------------------------------------------------

Reading the OPT-File                    .... done
Getting information on internals        .... done
Copying old internal coords+grads       .... done
Making the new internal coordinates     .... (new redundants).... done
Validating the new internal coordinates .... (new redundants).... done
Calculating the B-matrix                .... done
Calculating the G,G- and P matrices     .... done
Transforming gradient to internals      .... done
Projecting the internal gradient        .... done
Number of atoms                         ....   3
Number of internal coordinates          ....   3
Current Energy                          ....  -548.379843311 Eh
Current gradient norm                   ....     0.164346592 Eh/bohr
Maximum allowed component of the step   ....  0.300
Current trust radius                    ....  0.300
Evaluating the initial hessian          ....  (Almloef) done
Projecting the Hessian                  .... done
Forming the augmented Hessian           .... done
Diagonalizing the augmented Hessian     .... done
Last element of RFO vector              ....  0.987522890
Lowest eigenvalues of augmented Hessian:
 -0.019812932  0.522264970  0.779512671
Length of the computed step             ....  0.159465192
The final length of the internal step   ....  0.159465192
Converting the step to cartesian space:
 Initial RMS(Int)=    0.0920672717
Transforming coordinates:
 Iter   0:  RMS(Cart)=    0.0402569661 RMS(Int)=    0.0917456443
 Iter   1:  RMS(Cart)=    0.0010506976 RMS(Int)=    0.0012035333
 Iter   2:  RMS(Cart)=    0.0000426635 RMS(Int)=    0.0000560560
 Iter   3:  RMS(Cart)=    0.0000010586 RMS(Int)=    0.0000015137
 Iter   4:  RMS(Cart)=    0.0000000183 RMS(Int)=    0.0000000289
done
Storing new coordinates                 .... done

                                .--------------------.
          ----------------------|Geometry convergence|-------------------------
          Item                value                   Tolerance       Converged
          ---------------------------------------------------------------------
          RMS gradient        0.0720168576            0.0001000000      NO
          MAX gradient        0.0865395637            0.0003000000      NO
          RMS step            0.0920672717            0.0020000000      NO
          MAX step            0.1082657223            0.0040000000      NO
          ........................................................
          Max(Bonds)      0.0573      Max(Angles)    2.55
          Max(Dihed)        0.00      Max(Improp)    0.00
          ---------------------------------------------------------------------

The optimization has not yet converged - more geometry cycles are needed


    ---------------------------------------------------------------------------
                         Redundant Internal Coordinates
                            (Angstroem and degrees)

        Definition                    Value    dE/dq     Step     New-Value
    ----------------------------------------------------------------------------
     1. B(O   1,S   0)                1.5698  0.086540 -0.0573    1.5125   
     2. B(O   2,S   0)                1.5698  0.086535 -0.0573    1.5125   
     3. A(O   1,S   0,O   2)          113.00 -0.024121    2.55    115.55   
    ----------------------------------------------------------------------------

         *************************************************************
         *                GEOMETRY OPTIMIZATION CYCLE   2            *
         *************************************************************
---------------------------------
CARTESIAN COORDINATES (ANGSTROEM)
---------------------------------
  S     -1.373399    0.549639   -0.010284
  O      0.136954    0.512699   -0.081531
  O     -1.952511    1.192761    1.230135

----------------------------
CARTESIAN COORDINATES (A.U.)
----------------------------
  NO LB      ZA    FRAG     MASS         X           Y           Z
   0 S    16.0000    0    32.060   -2.595348    1.038667   -0.019434
   1 O     8.0000    0    15.999    0.258805    0.968862   -0.154071
   2 O     8.0000    0    15.999   -3.689711    2.253991    2.324618

--------------------------------
INTERNAL COORDINATES (ANGSTROEM)
--------------------------------
 S      0   0   0     0.000000000000     0.00000000     0.00000000
 O      1   0   0     1.512483571510     0.00000000     0.00000000
 O      1   2   0     1.512486385098   115.55423854     0.00000000

---------------------------
INTERNAL COORDINATES (A.U.)
---------------------------
 S      0   0   0     0.000000000000     0.00000000     0.00000000
 O      1   0   0     2.858179732209     0.00000000     0.00000000
 O      1   2   0     2.858185049120   115.55423854     0.00000000



           ************************************************************
           *        Program running with 5 parallel MPI-processes     *
           *              working on a common directory               *
           ************************************************************
 One Electron integrals                  ... done
 Pre-screening matrix                    ... done


           ************************************************************
           *        Program running with 5 parallel MPI-processes     *
           *              working on a common directory               *
           ************************************************************

Diagonalization of the overlap matrix:
Smallest eigenvalue                        ... 2.402e-03
Time for diagonalization                   ...    0.004 sec
Threshold for overlap eigenvalues          ... 1.000e-08
Number of eigenvalues below threshold      ... 0
Time for construction of square roots      ...    0.010 sec
Total time needed                          ...    0.014 sec

-------------------
DFT GRID GENERATION
-------------------

General Integration Accuracy     IntAcc      ...  4.340
Radial Grid Type                 RadialGrid  ... Gauss-Chebyshev
Angular Grid (max. acc.)         AngularGrid ... Lebedev-110
Angular grid pruning method      GridPruning ... 3 (G Style)
Weight generation scheme         WeightScheme... Becke
Basis function cutoff            BFCut       ...    1.0000e-11
Integration weight cutoff        WCut        ...    1.0000e-14
Grids for H and He will be reduced by one unit

# of grid points (after initial pruning)     ...   5238 (   0.0 sec)
# of grid points (after weights+screening)   ...   5191 (   0.0 sec)
nearest neighbour list constructed           ...    0.0 sec
Grid point re-assignment to atoms done       ...    0.0 sec
Grid point division into batches done        ...    0.0 sec
Reduced shell lists constructed in    0.0 sec

Total number of grid points                  ...     5191
Total number of batches                      ...       82
Average number of points per batch           ...       63
Average number of grid points per atom       ...     1730
Average number of shells per batch           ...    26.06 (74.44%)
Average number of basis functions per batch  ...    78.61 (79.41%)
Average number of large shells per batch     ...    22.94 (88.06%)
Average number of large basis fcns per batch ...    69.50 (88.41%)
Maximum spatial batch extension              ...  18.39, 18.16, 17.75 au
Average spatial batch extension              ...   1.35,  1.40,  1.32 au

Time for grid setup =    0.045 sec

--------------
SCF ITERATIONS
--------------
ITER       Energy         Delta-E        Max-DP      RMS-DP      [F,P]     Damp
               ***  Starting incremental Fock matrix formation  ***
  0   -548.3922056343   0.000000000000 0.01774165  0.00037241  0.0237204 0.7000
  1   -548.3934668367  -0.001261202465 0.01608794  0.00032999  0.0133212 0.7000
                               ***Turning on DIIS***
  2   -548.3942979065  -0.000831069749 0.04037066  0.00082473  0.0096304 0.0000
                      *** Initiating the SOSCF procedure ***
                           *** Shutting down DIIS ***
                      *** Re-Reading the Fockian *** 
                      *** Removing any level shift *** 
ITER      Energy       Delta-E        Grad      Rot      Max-DP    RMS-DP
  3   -548.39618603  -0.0018881284  0.001098  0.001098  0.002760  0.000089
               *** Restarting incremental Fock matrix formation ***
  4   -548.39620068  -0.0000146437  0.001022  0.004056  0.002715  0.000106
  5   -548.39613254   0.0000681434  0.003758  0.003728  0.002552  0.000083
  6   -548.39621047  -0.0000779346  0.000184  0.000319  0.001186  0.000024
  7   -548.39621045   0.0000000159  0.000189  0.000180  0.000622  0.000012
  8   -548.39621099  -0.0000005394  0.000119  0.000644  0.000365  0.000013
  9   -548.39620991   0.0000010840  0.000502  0.000520  0.000363  0.000011
                  ***Gradient check signals convergence***
              ***Rediagonalizing the Fockian in SOSCF/NRSCF***

               *****************************************************
               *                     SUCCESS                       *
               *           SCF CONVERGED AFTER  10 CYCLES          *
               *****************************************************

Setting up the final grid:

General Integration Accuracy     IntAcc      ...  4.670
Radial Grid Type                 RadialGrid  ... Gauss-Chebyshev
Angular Grid (max. acc.)         AngularGrid ... Lebedev-302
Angular grid pruning method      GridPruning ... 3 (G Style)
Weight generation scheme         WeightScheme... Becke
Basis function cutoff            BFCut       ...    1.0000e-11
Integration weight cutoff        WCut        ...    1.0000e-14
Grids for H and He will be reduced by one unit

# of grid points (after initial pruning)     ...  19270 (   0.0 sec)
# of grid points (after weights+screening)   ...  19119 (   0.0 sec)
nearest neighbour list constructed           ...    0.0 sec
Grid point re-assignment to atoms done       ...    0.0 sec
Grid point division into batches done        ...    0.1 sec
Reduced shell lists constructed in    0.2 sec

Total number of grid points                  ...    19119
Total number of batches                      ...      300
Average number of points per batch           ...       63
Average number of grid points per atom       ...     6373
Average number of shells per batch           ...    22.97 (65.62%)
Average number of basis functions per batch  ...    70.05 (70.76%)
Average number of large shells per batch     ...    19.93 (86.80%)
Average number of large basis fcns per batch ...    60.82 (86.82%)
Maximum spatial batch extension              ...  16.41, 19.94, 17.46 au
Average spatial batch extension              ...   0.73,  0.84,  0.80 au

Final grid set up in    0.2 sec
Final integration                            ... done (   0.1 sec)
Change in XC energy                          ...     0.000327831
Integrated number of electrons               ...    31.999999079
Previous integrated no of electrons          ...    32.000240495
Total Energy       :         -548.39588322 Eh          -14922.61063 eV
  Last Energy change         ...   -1.1396e-06  Tolerance :   1.0000e-08
  Last MAX-Density change    ...    8.4994e-06  Tolerance :   1.0000e-07
             **** THE GBW FILE WAS UPDATED (SO2_PBE.gbw) ****
             **** DENSITY FILE WAS UPDATED (SO2_PBE.scfp) ****
             **** ENERGY FILE WAS UPDATED (SO2_PBE.en.tmp) ****
             **** THE GBW FILE WAS UPDATED (SO2_PBE.gbw) ****
             **** DENSITY FILE WAS UPDATED (SO2_PBE.scfp) ****
Total SCF time: 0 days 0 hours 0 min 3 sec 

-------------------------   --------------------
FINAL SINGLE POINT ENERGY      -548.395883217991
-------------------------   --------------------



           ************************************************************
           *        Program running with 5 parallel MPI-processes     *
           *              working on a common directory               *
           ************************************************************
------------------------------------------------------------------------------
                         ORCA SCF GRADIENT CALCULATION
------------------------------------------------------------------------------

Gradient of the Kohn-Sham DFT energy:
Kohn-Sham wavefunction type      ... RKS
Hartree-Fock exchange scaling    ...    0.000
Number of operators              ...    1
Number of atoms                  ...    3
Basis set dimensions             ...   99
Integral neglect threshold       ... 2.5e-11
Integral primitive cutoff        ... 2.5e-12

Nuclear repulsion gradient       ... done
One Electron Gradient            ... done
Pre-screening matrix             ... done
RI-J gradient                    ... done
Exchange-correlation gradient    ... done

------------------
CARTESIAN GRADIENT
------------------

   1   S   :   -0.036709374   -0.023917219   -0.046031699
   2   O   :    0.051205949    0.001239928    0.002382474
   3   O   :   -0.014496576    0.022677290    0.043649225

Difference to translation invariance:
           :   -0.0000000000    0.0000000000    0.0000000000

Norm of the cartesian gradient     ...    0.0964233202
RMS gradient                       ...    0.0321411067
MAX gradient                       ...    0.0512059495

-------
TIMINGS
-------

Total SCF gradient time            ...        0.673 sec

One electron gradient       ....       0.003 sec  (  0.4%)
Prescreening matrices       ....       0.075 sec  ( 11.1%)
RI-J Coulomb gradient       ....       0.174 sec  ( 25.9%)
XC gradient                 ....       0.181 sec  ( 26.9%)
------------------------------------------------------------------------------
                         ORCA GEOMETRY RELAXATION STEP
------------------------------------------------------------------------------

Reading the OPT-File                    .... done
Getting information on internals        .... done
Copying old internal coords+grads       .... done
Making the new internal coordinates     .... (new redundants).... done
Validating the new internal coordinates .... (new redundants).... done
Calculating the B-matrix                .... done
Calculating the G,G- and P matrices     .... done
Transforming gradient to internals      .... done
Projecting the internal gradient        .... done
Number of atoms                         ....   3
Number of internal coordinates          ....   3
Current Energy                          ....  -548.395883218 Eh
Current gradient norm                   ....     0.096423320 Eh/bohr
Maximum allowed component of the step   ....  0.300
Current trust radius                    ....  0.300
Updating the Hessian (BFGS)             .... done
Forming the augmented Hessian           .... done
Diagonalizing the augmented Hessian     .... done
Last element of RFO vector              ....  0.976473472
Lowest eigenvalues of augmented Hessian:
 -0.016216593  0.327717856  0.545535204
Length of the computed step             ....  0.220832995
The final length of the internal step   ....  0.220832995
Converting the step to cartesian space:
 Initial RMS(Int)=    0.1274979891
Transforming coordinates:
 Iter   0:  RMS(Cart)=    0.0561426159 RMS(Int)=    0.1268558698
 Iter   1:  RMS(Cart)=    0.0021810493 RMS(Int)=    0.0026453574
 Iter   2:  RMS(Cart)=    0.0001277507 RMS(Int)=    0.0001747351
 Iter   3:  RMS(Cart)=    0.0000043531 RMS(Int)=    0.0000064916
 Iter   4:  RMS(Cart)=    0.0000000933 RMS(Int)=    0.0000001591
done
Storing new coordinates                 .... done

                                .--------------------.
          ----------------------|Geometry convergence|-------------------------
          Item                value                   Tolerance       Converged
          ---------------------------------------------------------------------
          Energy change      -0.0160399071            0.0000050000      NO
          RMS gradient        0.0425839698            0.0001000000      NO
          MAX gradient        0.0509992320            0.0003000000      NO
          RMS step            0.1274979891            0.0020000000      NO
          MAX step            0.1489528734            0.0040000000      NO
          ........................................................
          Max(Bonds)      0.0788      Max(Angles)    3.80
          Max(Dihed)        0.00      Max(Improp)    0.00
          ---------------------------------------------------------------------

The optimization has not yet converged - more geometry cycles are needed


    ---------------------------------------------------------------------------
                         Redundant Internal Coordinates
                            (Angstroem and degrees)

        Definition                    Value    dE/dq     Step     New-Value
    ----------------------------------------------------------------------------
     1. B(O   1,S   0)                1.5125  0.050999 -0.0788    1.4337   
     2. B(O   2,S   0)                1.5125  0.050983 -0.0788    1.4337   
     3. A(O   1,S   0,O   2)          115.55 -0.015493    3.80    119.36   
    ----------------------------------------------------------------------------

         *************************************************************
         *                GEOMETRY OPTIMIZATION CYCLE   3            *
         *************************************************************
---------------------------------
CARTESIAN COORDINATES (ANGSTROEM)
---------------------------------
  S     -1.341561    0.570356    0.029675
  O      0.086767    0.513492   -0.080002
  O     -1.934162    1.171251    1.188647

----------------------------
CARTESIAN COORDINATES (A.U.)
----------------------------
  NO LB      ZA    FRAG     MASS         X           Y           Z
   0 S    16.0000    0    32.060   -2.535183    1.077818    0.056077
   1 O     8.0000    0    15.999    0.163966    0.970360   -0.151181
   2 O     8.0000    0    15.999   -3.655037    2.213343    2.246218

--------------------------------
INTERNAL COORDINATES (ANGSTROEM)
--------------------------------
 S      0   0   0     0.000000000000     0.00000000     0.00000000
 O      1   0   0     1.433661106904     0.00000000     0.00000000
 O      1   2   0     1.433689911954   119.35823135     0.00000000

---------------------------
INTERNAL COORDINATES (A.U.)
---------------------------
 S      0   0   0     0.000000000000     0.00000000     0.00000000
 O      1   0   0     2.709226860903     0.00000000     0.00000000
 O      1   2   0     2.709281294559   119.35823135     0.00000000



           ************************************************************
           *        Program running with 5 parallel MPI-processes     *
           *              working on a common directory               *
           ************************************************************
 One Electron integrals                  ... done
 Pre-screening matrix                    ... done


           ************************************************************
           *        Program running with 5 parallel MPI-processes     *
           *              working on a common directory               *
           ************************************************************

Diagonalization of the overlap matrix:
Smallest eigenvalue                        ... 1.931e-03
Time for diagonalization                   ...    0.002 sec
Threshold for overlap eigenvalues          ... 1.000e-08
Number of eigenvalues below threshold      ... 0
Time for construction of square roots      ...    0.010 sec
Total time needed                          ...    0.012 sec

-------------------
DFT GRID GENERATION
-------------------

General Integration Accuracy     IntAcc      ...  4.340
Radial Grid Type                 RadialGrid  ... Gauss-Chebyshev
Angular Grid (max. acc.)         AngularGrid ... Lebedev-110
Angular grid pruning method      GridPruning ... 3 (G Style)
Weight generation scheme         WeightScheme... Becke
Basis function cutoff            BFCut       ...    1.0000e-11
Integration weight cutoff        WCut        ...    1.0000e-14
Grids for H and He will be reduced by one unit

# of grid points (after initial pruning)     ...   5238 (   0.0 sec)
# of grid points (after weights+screening)   ...   5193 (   0.0 sec)
nearest neighbour list constructed           ...    0.0 sec
Grid point re-assignment to atoms done       ...    0.0 sec
Grid point division into batches done        ...    0.0 sec
Reduced shell lists constructed in    0.0 sec

Total number of grid points                  ...     5193
Total number of batches                      ...       83
Average number of points per batch           ...       62
Average number of grid points per atom       ...     1731
Average number of shells per batch           ...    26.00 (74.29%)
Average number of basis functions per batch  ...    78.22 (79.01%)
Average number of large shells per batch     ...    23.44 (90.17%)
Average number of large basis fcns per batch ...    71.11 (90.91%)
Maximum spatial batch extension              ...  18.45, 15.56, 17.75 au
Average spatial batch extension              ...   1.12,  1.22,  1.24 au

Time for grid setup =    0.045 sec

--------------
SCF ITERATIONS
--------------
ITER       Energy         Delta-E        Max-DP      RMS-DP      [F,P]     Damp
               ***  Starting incremental Fock matrix formation  ***
  0   -548.3920557207   0.000000000000 0.03653350  0.00063152  0.0346234 0.7000
  1   -548.3948962428  -0.002840522107 0.03534628  0.00058366  0.0197321 0.7000
                               ***Turning on DIIS***
  2   -548.3967608266  -0.001864583836 0.09328374  0.00151085  0.0135445 0.0000
  3   -548.4009312708  -0.004170444229 0.00634185  0.00016453  0.0038370 0.0000
  4   -548.4009747658  -0.000043494928 0.00159652  0.00006310  0.0036859 0.0000
                      *** Initiating the SOSCF procedure ***
                           *** Shutting down DIIS ***
                      *** Re-Reading the Fockian *** 
                      *** Removing any level shift *** 
ITER      Energy       Delta-E        Grad      Rot      Max-DP    RMS-DP
  5   -548.40099765  -0.0000228801  0.000266  0.000266  0.001380  0.000024
               *** Restarting incremental Fock matrix formation ***
  6   -548.40100191  -0.0000042645  0.000102  0.000345  0.000246  0.000009
  7   -548.40100161   0.0000003013  0.000260  0.000248  0.000166  0.000006
  8   -548.40100199  -0.0000003847  0.000031  0.000032  0.000145  0.000003
  9   -548.40100199   0.0000000059  0.000022  0.000019  0.000069  0.000001
 10   -548.40100200  -0.0000000107  0.000012  0.000050  0.000037  0.000001
 11   -548.40100200   0.0000000035  0.000038  0.000038  0.000035  0.000001
                 **** Energy Check signals convergence ****
              ***Rediagonalizing the Fockian in SOSCF/NRSCF***

               *****************************************************
               *                     SUCCESS                       *
               *           SCF CONVERGED AFTER  12 CYCLES          *
               *****************************************************

Setting up the final grid:

General Integration Accuracy     IntAcc      ...  4.670
Radial Grid Type                 RadialGrid  ... Gauss-Chebyshev
Angular Grid (max. acc.)         AngularGrid ... Lebedev-302
Angular grid pruning method      GridPruning ... 3 (G Style)
Weight generation scheme         WeightScheme... Becke
Basis function cutoff            BFCut       ...    1.0000e-11
Integration weight cutoff        WCut        ...    1.0000e-14
Grids for H and He will be reduced by one unit

# of grid points (after initial pruning)     ...  19270 (   0.0 sec)
# of grid points (after weights+screening)   ...  19107 (   0.0 sec)
nearest neighbour list constructed           ...    0.0 sec
Grid point re-assignment to atoms done       ...    0.0 sec
Grid point division into batches done        ...    0.1 sec
Reduced shell lists constructed in    0.1 sec

Total number of grid points                  ...    19107
Total number of batches                      ...      300
Average number of points per batch           ...       63
Average number of grid points per atom       ...     6369
Average number of shells per batch           ...    23.74 (67.82%)
Average number of basis functions per batch  ...    72.03 (72.76%)
Average number of large shells per batch     ...    20.52 (86.46%)
Average number of large basis fcns per batch ...    62.33 (86.53%)
Maximum spatial batch extension              ...  15.45, 15.91, 17.54 au
Average spatial batch extension              ...   0.69,  0.78,  0.81 au

Final grid set up in    0.2 sec
Final integration                            ... done (   0.1 sec)
Change in XC energy                          ...     0.000201465
Integrated number of electrons               ...    32.000011176
Previous integrated no of electrons          ...    32.000065816
Total Energy       :         -548.40080053 Eh          -14922.74444 eV
  Last Energy change         ...   -3.9088e-09  Tolerance :   1.0000e-08
  Last MAX-Density change    ...    1.0402e-06  Tolerance :   1.0000e-07
             **** THE GBW FILE WAS UPDATED (SO2_PBE.gbw) ****
             **** DENSITY FILE WAS UPDATED (SO2_PBE.scfp) ****
             **** ENERGY FILE WAS UPDATED (SO2_PBE.en.tmp) ****
             **** THE GBW FILE WAS UPDATED (SO2_PBE.gbw) ****
             **** DENSITY FILE WAS UPDATED (SO2_PBE.scfp) ****
Total SCF time: 0 days 0 hours 0 min 4 sec 

-------------------------   --------------------
FINAL SINGLE POINT ENERGY      -548.400800533907
-------------------------   --------------------



           ************************************************************
           *        Program running with 5 parallel MPI-processes     *
           *              working on a common directory               *
           ************************************************************
------------------------------------------------------------------------------
                         ORCA SCF GRADIENT CALCULATION
------------------------------------------------------------------------------

Gradient of the Kohn-Sham DFT energy:
Kohn-Sham wavefunction type      ... RKS
Hartree-Fock exchange scaling    ...    0.000
Number of operators              ...    1
Number of atoms                  ...    3
Basis set dimensions             ...   99
Integral neglect threshold       ... 2.5e-11
Integral primitive cutoff        ... 2.5e-12

Nuclear repulsion gradient       ... done
One Electron Gradient            ... done
Pre-screening matrix             ... done
RI-J gradient                    ... done
Exchange-correlation gradient    ... done

------------------
CARTESIAN GRADIENT
------------------

   1   S   :    0.016729271    0.010856674    0.020923172
   2   O   :   -0.028480079    0.001104696    0.002131619
   3   O   :    0.011750808   -0.011961370   -0.023054791

Difference to translation invariance:
           :    0.0000000000    0.0000000000    0.0000000000

Norm of the cartesian gradient     ...    0.0496495049
RMS gradient                       ...    0.0165498350
MAX gradient                       ...    0.0284800794

-------
TIMINGS
-------

Total SCF gradient time            ...        0.667 sec

One electron gradient       ....       0.004 sec  (  0.6%)
Prescreening matrices       ....       0.078 sec  ( 11.7%)
RI-J Coulomb gradient       ....       0.184 sec  ( 27.6%)
XC gradient                 ....       0.174 sec  ( 26.1%)
------------------------------------------------------------------------------
                         ORCA GEOMETRY RELAXATION STEP
------------------------------------------------------------------------------

Reading the OPT-File                    .... done
Getting information on internals        .... done
Copying old internal coords+grads       .... done
Making the new internal coordinates     .... (new redundants).... done
Validating the new internal coordinates .... (new redundants).... done
Calculating the B-matrix                .... done
Calculating the G,G- and P matrices     .... done
Transforming gradient to internals      .... done
Projecting the internal gradient        .... done
Number of atoms                         ....   3
Number of internal coordinates          ....   3
Current Energy                          ....  -548.400800534 Eh
Current gradient norm                   ....     0.049649505 Eh/bohr
Maximum allowed component of the step   ....  0.300
Current trust radius                    ....  0.300
Updating the Hessian (BFGS)             .... done
Forming the augmented Hessian           .... done
Diagonalizing the augmented Hessian     .... done
Last element of RFO vector              ....  0.997232494
Lowest eigenvalues of augmented Hessian:
 -0.002969017  0.442213715  0.619906501
Length of the computed step             ....  0.074552490
The final length of the internal step   ....  0.074552490
Converting the step to cartesian space:
 Initial RMS(Int)=    0.0430429000
Transforming coordinates:
 Iter   0:  RMS(Cart)=    0.0204220728 RMS(Int)=    0.0430619305
 Iter   1:  RMS(Cart)=    0.0001176697 RMS(Int)=    0.0001387888
 Iter   2:  RMS(Cart)=    0.0000023940 RMS(Int)=    0.0000028464
 Iter   3:  RMS(Cart)=    0.0000000409 RMS(Int)=    0.0000000488
done
Storing new coordinates                 .... done

                                .--------------------.
          ----------------------|Geometry convergence|-------------------------
          Item                value                   Tolerance       Converged
          ---------------------------------------------------------------------
          Energy change      -0.0049173159            0.0000050000      NO
          RMS gradient        0.0233064375            0.0001000000      NO
          MAX gradient        0.0285763765            0.0003000000      NO
          RMS step            0.0430429000            0.0020000000      NO
          MAX step            0.0520100168            0.0040000000      NO
          ........................................................
          Max(Bonds)      0.0275      Max(Angles)    0.71
          Max(Dihed)        0.00      Max(Improp)    0.00
          ---------------------------------------------------------------------

The optimization has not yet converged - more geometry cycles are needed


    ---------------------------------------------------------------------------
                         Redundant Internal Coordinates
                            (Angstroem and degrees)

        Definition                    Value    dE/dq     Step     New-Value
    ----------------------------------------------------------------------------
     1. B(O   1,S   0)                1.4337 -0.028576  0.0275    1.4612   
     2. B(O   2,S   0)                1.4337 -0.028512  0.0275    1.4612   
     3. A(O   1,S   0,O   2)          119.36  0.000133   -0.71    118.65   
    ----------------------------------------------------------------------------

         *************************************************************
         *                GEOMETRY OPTIMIZATION CYCLE   4            *
         *************************************************************
---------------------------------
CARTESIAN COORDINATES (ANGSTROEM)
---------------------------------
  S     -1.349928    0.564920    0.019188
  O      0.106575    0.511127   -0.084563
  O     -1.945603    1.179052    1.203695

----------------------------
CARTESIAN COORDINATES (A.U.)
----------------------------
  NO LB      ZA    FRAG     MASS         X           Y           Z
   0 S    16.0000    0    32.060   -2.550994    1.067543    0.036261
   1 O     8.0000    0    15.999    0.201397    0.965891   -0.159801
   2 O     8.0000    0    15.999   -3.676657    2.228086    2.274654

--------------------------------
INTERNAL COORDINATES (ANGSTROEM)
--------------------------------
 S      0   0   0     0.000000000000     0.00000000     0.00000000
 O      1   0   0     1.461183622728     0.00000000     0.00000000
 O      1   2   0     1.461178874642   118.64586833     0.00000000

---------------------------
INTERNAL COORDINATES (A.U.)
---------------------------
 S      0   0   0     0.000000000000     0.00000000     0.00000000
 O      1   0   0     2.761236878328     0.00000000     0.00000000
 O      1   2   0     2.761227905744   118.64586833     0.00000000



           ************************************************************
           *        Program running with 5 parallel MPI-processes     *
           *              working on a common directory               *
           ************************************************************
 One Electron integrals                  ... done
 Pre-screening matrix                    ... done


           ************************************************************
           *        Program running with 5 parallel MPI-processes     *
           *              working on a common directory               *
           ************************************************************

Diagonalization of the overlap matrix:
Smallest eigenvalue                        ... 2.076e-03
Time for diagonalization                   ...    0.003 sec
Threshold for overlap eigenvalues          ... 1.000e-08
Number of eigenvalues below threshold      ... 0
Time for construction of square roots      ...    0.013 sec
Total time needed                          ...    0.016 sec

-------------------
DFT GRID GENERATION
-------------------

General Integration Accuracy     IntAcc      ...  4.340
Radial Grid Type                 RadialGrid  ... Gauss-Chebyshev
Angular Grid (max. acc.)         AngularGrid ... Lebedev-110
Angular grid pruning method      GridPruning ... 3 (G Style)
Weight generation scheme         WeightScheme... Becke
Basis function cutoff            BFCut       ...    1.0000e-11
Integration weight cutoff        WCut        ...    1.0000e-14
Grids for H and He will be reduced by one unit

# of grid points (after initial pruning)     ...   5238 (   0.0 sec)
# of grid points (after weights+screening)   ...   5195 (   0.0 sec)
nearest neighbour list constructed           ...    0.0 sec
Grid point re-assignment to atoms done       ...    0.0 sec
Grid point division into batches done        ...    0.0 sec
Reduced shell lists constructed in    0.0 sec

Total number of grid points                  ...     5195
Total number of batches                      ...       82
Average number of points per batch           ...       63
Average number of grid points per atom       ...     1732
Average number of shells per batch           ...    25.94 (74.13%)
Average number of basis functions per batch  ...    78.17 (78.96%)
Average number of large shells per batch     ...    23.28 (89.72%)
Average number of large basis fcns per batch ...    70.50 (90.19%)
Maximum spatial batch extension              ...  18.50, 15.58, 17.75 au
Average spatial batch extension              ...   1.13,  1.24,  1.26 au

Time for grid setup =    0.044 sec

--------------
SCF ITERATIONS
--------------
ITER       Energy         Delta-E        Max-DP      RMS-DP      [F,P]     Damp
               ***  Starting incremental Fock matrix formation  ***
  0   -548.4012712505   0.000000000000 0.01367045  0.00022406  0.0124896 0.7000
                      *** Initiating the SOSCF procedure ***
                      *** Re-Reading the Fockian *** 
                      *** Removing any level shift *** 
ITER      Energy       Delta-E        Grad      Rot      Max-DP    RMS-DP
  1   -548.40159893  -0.0003276836  0.001663  0.001663  0.041646  0.000666
               *** Restarting incremental Fock matrix formation ***
  2   -548.40220043  -0.0006014913  0.003011  0.010792  0.007075  0.000297
  3   -548.40178338   0.0004170452  0.009351  0.009035  0.006110  0.000211
  4   -548.40227917  -0.0004957938  0.000527  0.000795  0.003890  0.000083
  5   -548.40227911   0.0000000648  0.000536  0.000414  0.001967  0.000042
  6   -548.40228391  -0.0000048036  0.000173  0.000942  0.000410  0.000018
  7   -548.40228166   0.0000022535  0.000758  0.000768  0.000335  0.000015
  8   -548.40228404  -0.0000023767  0.000008  0.000011  0.000039  0.000001
  9   -548.40228402   0.0000000125  0.000006  0.000005  0.000020  0.000000
                  ***Gradient check signals convergence***
              ***Rediagonalizing the Fockian in SOSCF/NRSCF***

               *****************************************************
               *                     SUCCESS                       *
               *           SCF CONVERGED AFTER  10 CYCLES          *
               *****************************************************

Setting up the final grid:

General Integration Accuracy     IntAcc      ...  4.670
Radial Grid Type                 RadialGrid  ... Gauss-Chebyshev
Angular Grid (max. acc.)         AngularGrid ... Lebedev-302
Angular grid pruning method      GridPruning ... 3 (G Style)
Weight generation scheme         WeightScheme... Becke
Basis function cutoff            BFCut       ...    1.0000e-11
Integration weight cutoff        WCut        ...    1.0000e-14
Grids for H and He will be reduced by one unit

# of grid points (after initial pruning)     ...  19270 (   0.0 sec)
# of grid points (after weights+screening)   ...  19112 (   0.0 sec)
nearest neighbour list constructed           ...    0.0 sec
Grid point re-assignment to atoms done       ...    0.0 sec
Grid point division into batches done        ...    0.1 sec
Reduced shell lists constructed in    0.2 sec

Total number of grid points                  ...    19112
Total number of batches                      ...      300
Average number of points per batch           ...       63
Average number of grid points per atom       ...     6371
Average number of shells per batch           ...    23.51 (67.17%)
Average number of basis functions per batch  ...    71.34 (72.06%)
Average number of large shells per batch     ...    20.16 (85.77%)
Average number of large basis fcns per batch ...    61.21 (85.80%)
Maximum spatial batch extension              ...  15.44, 15.92, 17.50 au
Average spatial batch extension              ...   0.69,  0.79,  0.84 au

Final grid set up in    0.2 sec
Final integration                            ... done (   0.1 sec)
Change in XC energy                          ...     0.000288933
Integrated number of electrons               ...    32.000014655
Previous integrated no of electrons          ...    32.000153497
Total Energy       :         -548.40199510 Eh          -14922.77695 eV
  Last Energy change         ...   -1.0564e-08  Tolerance :   1.0000e-08
  Last MAX-Density change    ...    1.8108e-06  Tolerance :   1.0000e-07
             **** THE GBW FILE WAS UPDATED (SO2_PBE.gbw) ****
             **** DENSITY FILE WAS UPDATED (SO2_PBE.scfp) ****
             **** ENERGY FILE WAS UPDATED (SO2_PBE.en.tmp) ****
             **** THE GBW FILE WAS UPDATED (SO2_PBE.gbw) ****
             **** DENSITY FILE WAS UPDATED (SO2_PBE.scfp) ****
Total SCF time: 0 days 0 hours 0 min 3 sec 

-------------------------   --------------------
FINAL SINGLE POINT ENERGY      -548.401995101382
[...]
  70   0.0000       4.958723       134.9337 
  71   0.0000       4.964459       135.0898 
  72   0.0000       4.968424       135.1977 
  73   0.0000       4.970153       135.2447 
  74   0.0000       5.029781       136.8673 
  75   0.0000       5.053605       137.5156 
  76   0.0000       5.068997       137.9344 
  77   0.0000       5.117410       139.2518 
  78   0.0000       5.246150       142.7550 
  79   0.0000       5.248654       142.8231 
  80   0.0000       5.379806       146.3920 
  81   0.0000       5.432689       147.8310 
  82   0.0000       5.513413       150.0276 
  83   0.0000       6.048843       164.5974 
  84   0.0000       6.092806       165.7937 
  85   0.0000       6.105479       166.1385 
  86   0.0000       6.125587       166.6857 
  87   0.0000       6.445637       175.3947 
  88   0.0000       6.453706       175.6143 
  89   0.0000       6.505209       177.0157 
  90   0.0000       6.540575       177.9781 
  91   0.0000       6.652872       181.0339 
  92   0.0000       6.728520       183.0923 
  93   0.0000       8.535077       232.2512 
  94   0.0000       8.823129       240.0895 
  95   0.0000       9.381255       255.2769 
  96   0.0000      20.705359       563.4215 
  97   0.0000      42.746665      1163.1959 
  98   0.0000      42.967566      1169.2069 

                    ********************************
                    * MULLIKEN POPULATION ANALYSIS *
                    ********************************

-----------------------
MULLIKEN ATOMIC CHARGES
-----------------------
   0 S :    0.566782
   1 O :   -0.283226
   2 O :   -0.283556
Sum of atomic charges:    0.0000000

--------------------------------
MULLIKEN REDUCED ORBITAL CHARGES
--------------------------------
  0 S s       :     5.910807  s :     5.910807
      pz      :     2.986889  p :     8.841110
      px      :     2.867385
      py      :     2.986836
      dz2     :     0.109863  d :     0.623530
      dxz     :     0.194046
      dyz     :     0.062254
      dx2y2   :     0.117258
      dxy     :     0.140109
      f0      :     0.013042  f :     0.057771
      f+1     :     0.008196
      f-1     :     0.005488
      f+2     :     0.012198
      f-2     :     0.003975
      f+3     :     0.004962
      f-3     :     0.009911
  1 O s       :     3.843930  s :     3.843930
      pz      :     1.617000  p :     4.405389
      px      :     1.337037
      py      :     1.451351
      dz2     :     0.003000  d :     0.032214
      dxz     :     0.009922
      dyz     :     0.000141
      dx2y2   :     0.008442
      dxy     :     0.010708
      f0      :     0.000223  f :     0.001693
      f+1     :     0.000259
      f-1     :     0.000046
      f+2     :     0.000314
      f-2     :     0.000019
      f+3     :     0.000352
      f-3     :     0.000480
  2 O s       :     3.844737  s :     3.844737
      pz      :     1.408498  p :     4.404914
      px      :     1.601159
      py      :     1.395256
      dz2     :     0.009467  d :     0.032204
      dxz     :     0.008019
      dyz     :     0.007627
      dx2y2   :     0.003565
      dxy     :     0.003526
      f0      :     0.000363  f :     0.001702
      f+1     :     0.000348
      f-1     :     0.000249
      f+2     :     0.000295
      f-2     :     0.000303
      f+3     :     0.000073
      f-3     :     0.000071


                     *******************************
                     * LOEWDIN POPULATION ANALYSIS *
                     *******************************

----------------------
LOEWDIN ATOMIC CHARGES
----------------------
   0 S :    0.501221
   1 O :   -0.250647
   2 O :   -0.250574

-------------------------------
LOEWDIN REDUCED ORBITAL CHARGES
-------------------------------
  0 S s       :     5.278145  s :     5.278145
      pz      :     3.049733  p :     8.966808
      px      :     2.957564
      py      :     2.959510
      dz2     :     0.192259  d :     1.070187
      dxz     :     0.324183
      dyz     :     0.112776
      dx2y2   :     0.231525
      dxy     :     0.209444
      f0      :     0.035268  f :     0.183639
      f+1     :     0.032678
      f-1     :     0.020475
      f+2     :     0.031405
      f-2     :     0.015240
      f+3     :     0.023024
      f-3     :     0.025549
  1 O s       :     3.633725  s :     3.633725
      pz      :     1.566419  p :     4.540237
      px      :     1.553630
      py      :     1.420188
      dz2     :     0.010739  d :     0.072374
      dxz     :     0.015104
      dyz     :     0.000286
      dx2y2   :     0.030380
      dxy     :     0.015864
      f0      :     0.000385  f :     0.004311
      f+1     :     0.000920
      f-1     :     0.000070
      f+2     :     0.000615
      f-2     :     0.000052
      f+3     :     0.001335
      f-3     :     0.000934
  2 O s       :     3.633792  s :     3.633792
      pz      :     1.540982  p :     4.540094
      px      :     1.585855
      py      :     1.413257
      dz2     :     0.021521  d :     0.072372
      dxz     :     0.017529
      dyz     :     0.020518
      dx2y2   :     0.005845
      dxy     :     0.006960
      f0      :     0.000716  f :     0.004316
      f+1     :     0.000969
      f-1     :     0.000893
      f+2     :     0.000595
      f-2     :     0.000848
      f+3     :     0.000159
      f-3     :     0.000136


                      *****************************
                      * MAYER POPULATION ANALYSIS *
                      *****************************

  NA   - Mulliken gross atomic population
  ZA   - Total nuclear charge
  QA   - Mulliken gross atomic charge
  VA   - Mayer's total valence
  BVA  - Mayer's bonded valence
  FA   - Mayer's free valence

  ATOM       NA         ZA         QA         VA         BVA        FA
  0 S     15.4332    16.0000     0.5668     3.8567     3.8567    -0.0000
  1 O      8.2832     8.0000    -0.2832     2.1194     2.1194     0.0000
  2 O      8.2836     8.0000    -0.2836     2.1184     2.1184     0.0000

  Mayer bond orders larger than 0.100000
B(  0-S ,  1-O ) :   1.9288 B(  0-S ,  2-O ) :   1.9278 B(  1-O ,  2-O ) :   0.1905 


-------
TIMINGS
-------

Total SCF time: 0 days 0 hours 0 min 1 sec 

Total time                  ....       1.352 sec
Sum of individual times     ....       1.107 sec  ( 81.9%)

Fock matrix formation       ....       0.825 sec  ( 61.0%)
  Split-RI-J                ....       0.510 sec  ( 61.8% of F)
  XC integration            ....       0.198 sec  ( 24.0% of F)
    Basis function eval.    ....       0.036 sec  ( 18.2% of XC)
    Density eval.           ....       0.024 sec  ( 12.1% of XC)
    XC-Functional eval.     ....       0.002 sec  (  1.0% of XC)
    XC-Potential eval.      ....       0.019 sec  (  9.6% of XC)
Diagonalization             ....       0.007 sec  (  0.5%)
Density matrix formation    ....       0.001 sec  (  0.1%)
Population analysis         ....       0.017 sec  (  1.3%)
Initial guess               ....       0.009 sec  (  0.7%)
Orbital Transformation      ....       0.000 sec  (  0.0%)
Orbital Orthonormalization  ....       0.003 sec  (  0.2%)
DIIS solution               ....       0.000 sec  (  0.0%)
SOSCF solution              ....       0.018 sec  (  1.3%)
Grid generation             ....       0.230 sec  ( 17.0%)

-------------------------   --------------------
FINAL SINGLE POINT ENERGY      -548.402034510842
-------------------------   --------------------

                                *** OPTIMIZATION RUN DONE ***

                            ***************************************
                            *     ORCA property calculations      *
                            ***************************************

                                    ---------------------
                                    Active property flags
                                    ---------------------
   (+) Dipole Moment


------------------------------------------------------------------------------
                       ORCA ELECTRIC PROPERTIES CALCULATION
------------------------------------------------------------------------------

Dipole Moment Calculation                       ... on
Quadrupole Moment Calculation                   ... off
Polarizability Calculation                      ... off
GBWName                                         ... SO2_PBE.gbw
Electron density file                           ... SO2_PBE.scfp
The origin for moment calculation is the CENTER OF MASS  = (-2.143635,  1.332708  0.547697)

-------------
DIPOLE MOMENT
-------------
                                X             Y             Z
Electronic contribution:     -0.37642      -0.24482      -0.47228
Nuclear contribution   :      0.01250       0.00813       0.01569
                        -----------------------------------------
Total Dipole Moment    :     -0.36393      -0.23668      -0.45659
                        -----------------------------------------
Magnitude (a.u.)       :      0.63003
Magnitude (Debye)      :      1.60140



--------------------
Rotational spectrum 
--------------------
 
Rotational constants in cm-1:     1.924315     0.334281     0.284806 
Rotational constants in MHz : 57689.514550 10021.489655  8538.270553 

 Dipole components along the rotational axes: 
x,y,z [a.u.] :    -0.000221    -0.630026     0.000041 
x,y,z [Debye]:    -0.000563    -1.601399     0.000105 

 

----------------------------------------------------------------------------
                           ORCA NUMERICAL FREQUENCIES
                              (5-process run)
----------------------------------------------------------------------------

Number of atoms                ... 3
Central differences            ... used
Number of displacements        ... 18
Numerical increment            ... 5.000e-03 bohr
IR-spectrum generation         ... on
Raman-spectrum generation      ... off
Surface Crossing Hessian       ... off

The output will be reduced. Please look at the following files:
SCF program output             ... >SO2_PBE.lastscf
Integral program output        ... >SO2_PBE.lastint
Gradient program output        ... >SO2_PBE.lastgrad
Dipole moment program output   ... >SO2_PBE.lastmom
AutoCI program output          ... >SO2_PBE.lastautoci


         <<< Energy and Gradient at the input geometry >>>

        <<< Energy and Gradient at displaced geometries >>>
             <<<Displacing   2/coordinate 1 (+)>>>
             <<<Displacing   2/coordinate 2 (+)>>>
             <<<Displacing   1/coordinate 2 (+)>>>
             <<<Displacing   1/coordinate 3 (+)>>>
             <<<Displacing   1/coordinate 1 (+)>>>
             <<<Displacing   2/coordinate 1 (-)>>>
             <<<Displacing   2/coordinate 2 (-)>>>
             <<<Displacing   1/coordinate 2 (-)>>>
             <<<Displacing   1/coordinate 1 (-)>>>
             <<<Displacing   1/coordinate 3 (-)>>>
             <<<Displacing   2/coordinate 3 (+)>>>
             <<<Displacing   3/coordinate 2 (+)>>>
             <<<Displacing   3/coordinate 1 (+)>>>
             <<<Displacing   3/coordinate 3 (+)>>>
             <<<Displacing   2/coordinate 3 (-)>>>
             <<<Displacing   3/coordinate 2 (-)>>>
             <<<Displacing   3/coordinate 1 (-)>>>
             <<<Displacing   3/coordinate 3 (-)>>>

-----------------------
VIBRATIONAL FREQUENCIES
-----------------------

Scaling factor for frequencies =  1.000000000 (already applied!)

   0:         0.00 cm**-1
   1:         0.00 cm**-1
   2:         0.00 cm**-1
   3:         0.00 cm**-1
   4:         0.00 cm**-1
   5:         0.00 cm**-1
   6:       492.53 cm**-1
   7:      1116.65 cm**-1
   8:      1311.06 cm**-1


------------
NORMAL MODES
------------

These modes are the cartesian displacements weighted by the diagonal matrix
M(i,i)=1/sqrt(m[i]) where m[i] is the mass of the displaced atom
Thus, these vectors are normalized but *not* orthogonal

                  0          1          2          3          4          5    
      0       0.000000   0.000000   0.000000   0.000000   0.000000   0.000000
      1       0.000000   0.000000   0.000000   0.000000   0.000000   0.000000
      2       0.000000   0.000000   0.000000   0.000000   0.000000   0.000000
      3       0.000000   0.000000   0.000000   0.000000   0.000000   0.000000
      4       0.000000   0.000000   0.000000   0.000000   0.000000   0.000000
      5       0.000000   0.000000   0.000000   0.000000   0.000000   0.000000
      6       0.000000   0.000000   0.000000   0.000000   0.000000   0.000000
      7       0.000000   0.000000   0.000000   0.000000   0.000000   0.000000
      8       0.000000   0.000000   0.000000   0.000000   0.000000   0.000000
                   6          7          8    
      0       0.231339  -0.203293  -0.424631
      1       0.150649  -0.133021   0.137793
      2       0.290563  -0.256564   0.265769
      3       0.183304   0.659639   0.603309
      4      -0.286013  -0.015410  -0.023060
      5      -0.551647  -0.029721  -0.044477
      6      -0.646879  -0.252265   0.247599
      7      -0.015868   0.281967  -0.253061
      8      -0.030605   0.543843  -0.488090


-----------
IR SPECTRUM  
-----------

 Mode    freq (cm**-1)   T**2         TX         TY         TZ
-------------------------------------------------------------------
   6:       492.53   23.155434  (  2.775158   1.811131   3.489088)
   7:      1116.65   23.682323  ( -2.787564  -1.829936  -3.544453)
   8:      1311.06  179.050127  (-10.921859   3.553404   6.865598)

The first frequency considered to be a vibration is 6
The total number of vibrations considered is 3


--------------------------
THERMOCHEMISTRY AT 298.15K
--------------------------

Temperature         ... 298.15 K
Pressure            ... 1.00 atm
Total Mass          ... 64.06 AMU

Throughout the following assumptions are being made:
  (1) The electronic state is orbitally nondegenerate
  (2) There are no thermally accessible electronically excited states
  (3) Hindered rotations indicated by low frequency modes are not
      treated as such but are treated as vibrations and this may
      cause some error
  (4) All equations used are the standard statistical mechanics
      equations for an ideal gas
  (5) All vibrations are strictly harmonic

freq.     492.53  E(vib)   ...       0.14 
freq.    1116.65  E(vib)   ...       0.01 
freq.    1311.06  E(vib)   ...       0.01 

------------
INNER ENERGY
------------

The inner energy is: U= E(el) + E(ZPE) + E(vib) + E(rot) + E(trans)
    E(el)   - is the total energy from the electronic structure calculation
              = E(kin-el) + E(nuc-el) + E(el-el) + E(nuc-nuc)
    E(ZPE)  - the the zero temperature vibrational energy from the frequency calculation
    E(vib)  - the the finite temperature correction to E(ZPE) due to population
              of excited vibrational states
    E(rot)  - is the rotational thermal energy
    E(trans)- is the translational thermal energy

Summary of contributions to the inner energy U:
Electronic energy                ...   -548.40203451 Eh
Zero point energy                ...      0.00665281 Eh       4.17 kcal/mol
Thermal vibrational correction   ...      0.00026376 Eh       0.17 kcal/mol
Thermal rotational correction    ...      0.00141627 Eh       0.89 kcal/mol
Thermal translational correction ...      0.00141627 Eh       0.89 kcal/mol
-----------------------------------------------------------------------
Total thermal energy                   -548.39228539 Eh


Summary of corrections to the electronic energy:
(perhaps to be used in another calculation)
Total thermal correction                  0.00309630 Eh       1.94 kcal/mol
Non-thermal (ZPE) correction              0.00665281 Eh       4.17 kcal/mol
-----------------------------------------------------------------------
Total correction                          0.00974911 Eh       6.12 kcal/mol


--------
ENTHALPY
--------

The enthalpy is H = U + kB*T
                kB is Boltzmann's constant
Total free energy                 ...   -548.39228539 Eh 
Thermal Enthalpy correction       ...      0.00094421 Eh       0.59 kcal/mol
-----------------------------------------------------------------------
Total Enthalpy                    ...   -548.39134119 Eh


Note: Rotational entropy computed according to Herzberg 
Infrared and Raman Spectra, Chapter V,1, Van Nostrand Reinhold, 1945 
Point Group:  Cs, Symmetry Number:   1  
Rotational constants in cm-1:     1.924315     0.334281     0.284806 

Vibrational entropy computed according to the QRRHO of S. Grimme
Chem.Eur.J. 2012 18 9955


-------
ENTROPY
-------

The entropy contributions are T*S = T*(S(el)+S(vib)+S(rot)+S(trans))
     S(el)   - electronic entropy
     S(vib)  - vibrational entropy
     S(rot)  - rotational entropy
     S(trans)- translational entropy
The entropies will be listed as mutliplied by the temperature to get
units of energy

Electronic entropy                ...      0.00000000 Eh      0.00 kcal/mol
Vibrational entropy               ...      0.00036227 Eh      0.23 kcal/mol
Rotational entropy                ...      0.01031202 Eh      6.47 kcal/mol
Translational entropy             ...      0.01824046 Eh     11.45 kcal/mol
-----------------------------------------------------------------------
Final entropy term                ...      0.02891475 Eh     18.14 kcal/mol

In case the symmetry of your molecule has not been determined correctly
or in case you have a reason to use a different symmetry number we print 
out the resulting rotational entropy values for sn=1,12 :
 --------------------------------------------------------
|  sn= 1 | S(rot)=       0.01031202 Eh      6.47 kcal/mol|
|  sn= 2 | S(rot)=       0.00965756 Eh      6.06 kcal/mol|
|  sn= 3 | S(rot)=       0.00927473 Eh      5.82 kcal/mol|
|  sn= 4 | S(rot)=       0.00900311 Eh      5.65 kcal/mol|
|  sn= 5 | S(rot)=       0.00879242 Eh      5.52 kcal/mol|
|  sn= 6 | S(rot)=       0.00862027 Eh      5.41 kcal/mol|
|  sn= 7 | S(rot)=       0.00847473 Eh      5.32 kcal/mol|
|  sn= 8 | S(rot)=       0.00834865 Eh      5.24 kcal/mol|
|  sn= 9 | S(rot)=       0.00823744 Eh      5.17 kcal/mol|
|  sn=10 | S(rot)=       0.00813796 Eh      5.11 kcal/mol|
|  sn=11 | S(rot)=       0.00804797 Eh      5.05 kcal/mol|
|  sn=12 | S(rot)=       0.00796582 Eh      5.00 kcal/mol|
 --------------------------------------------------------


-------------------
GIBBS FREE ENERGY
-------------------

The Gibbs free energy is G = H - T*S

Total enthalpy                    ...   -548.39134119 Eh 
Total entropy correction          ...     -0.02891475 Eh    -18.14 kcal/mol
-----------------------------------------------------------------------
Final Gibbs free energy         ...   -548.42025594 Eh

For completeness - the Gibbs free energy minus the electronic energy
G-E(el)                           ...     -0.01822143 Eh    -11.43 kcal/mol


Total Time for Numerical Frequencies  :        51.034 sec

Timings for individual modules:

Sum of individual times         ...       70.191 sec (=   1.170 min)
GTO integral calculation        ...       13.356 sec (=   0.223 min)  19.0 %
SCF iterations                  ...       39.455 sec (=   0.658 min)  56.2 %
SCF Gradient evaluation         ...       16.004 sec (=   0.267 min)  22.8 %
Geometry relaxation             ...        1.376 sec (=   0.023 min)   2.0 %
                             ****ORCA TERMINATED NORMALLY****
TOTAL RUN TIME: 0 days 0 hours 1 minutes 54 seconds 290 msec
