
                                 *****************
                                 * O   R   C   A *
                                 *****************

           --- An Ab Initio, DFT and Semiempirical electronic structure package ---

                  #######################################################
                  #                        -***-                        #
                  #          Department of theory and spectroscopy      #
                  #               Directorship: Frank Neese             #
                  #        Max Planck Institute fuer Kohlenforschung    #
                  #                Kaiser Wilhelm Platz 1               #
                  #                 D-45470 Muelheim/Ruhr               #
                  #                      Germany                        #
                  #                                                     #
                  #                  All rights reserved                #
                  #                        -***-                        #
                  #######################################################


                         Program Version 4.2.1 -  RELEASE  -


 With contributions from (in alphabetic order):
   Daniel Aravena         : Magnetic Suceptibility
   Michael Atanasov       : Ab Initio Ligand Field Theory (pilot matlab implementation)
   Alexander A. Auer      : GIAO ZORA, VPT2
   Ute Becker             : Parallelization
   Giovanni Bistoni       : ED, misc. LED, open-shell LED, HFLD
   Martin Brehm           : Molecular dynamics
   Dmytro Bykov           : SCF Hessian
   Vijay G. Chilkuri      : MRCI spin determinant printing, contributions to CSF-ICE
   Dipayan Datta          : RHF DLPNO-CCSD density
   Achintya Kumar Dutta   : EOM-CC, STEOM-CC
   Dmitry Ganyushin       : Spin-Orbit,Spin-Spin,Magnetic field MRCI
   Miquel Garcia          : C-PCM Hessian, Gaussian charge scheme
   Yang Guo               : DLPNO-NEVPT2, CIM, IAO-localization
   Andreas Hansen         : Spin unrestricted coupled pair/coupled cluster methods
   Benjamin Helmich-Paris : CASSCF linear response (MC-RPA)
   Lee Huntington         : MR-EOM, pCC
   Robert Izsak           : Overlap fitted RIJCOSX, COSX-SCS-MP3, EOM
   Christian Kollmar      : KDIIS, OOCD, Brueckner-CCSD(T), CCSD density
   Simone Kossmann        : Meta GGA functionals, TD-DFT gradient, OOMP2, MP2 Hessian
   Martin Krupicka        : AUTO-CI
   Lucas Lang             : DCDCAS
   Dagmar Lenk            : GEPOL surface, SMD
   Dimitrios Liakos       : Extrapolation schemes; Compound Job, initial MDCI parallelization
   Dimitrios Manganas     : Further ROCIS development; embedding schemes
   Dimitrios Pantazis     : SARC Basis sets
   Taras Petrenko         : DFT Hessian,TD-DFT gradient, ASA, ECA, R-Raman, ABS, FL, XAS/XES, NRVS
   Peter Pinski           : DLPNO-MP2, DLPNO-MP2 Gradient
   Christoph Reimann      : Effective Core Potentials
   Marius Retegan         : Local ZFS, SOC
   Christoph Riplinger    : Optimizer, TS searches, QM/MM, DLPNO-CCSD(T), (RO)-DLPNO pert. Triples
   Tobias Risthaus        : Range-separated hybrids, TD-DFT gradient, RPA, STAB
   Michael Roemelt        : Original ROCIS implementation
   Masaaki Saitow         : Open-shell DLPNO-CCSD energy and density
   Barbara Sandhoefer     : DKH picture change effects
   Avijit Sen             : IP-ROCIS
   Kantharuban Sivalingam : CASSCF convergence, NEVPT2, FIC-MRCI
   Bernardo de Souza      : ESD, SOC TD-DFT
   Georgi Stoychev        : AutoAux, RI-MP2 NMR
   Willem Van den Heuvel  : Paramagnetic NMR
   Boris Wezisla          : Elementary symmetry handling
   Frank Wennmohs         : Technical directorship


 We gratefully acknowledge several colleagues who have allowed us to
 interface, adapt or use parts of their codes:
   Stefan Grimme, W. Hujo, H. Kruse,             : VdW corrections, initial TS optimization,
                  C. Bannwarth                     DFT functionals, gCP, sTDA/sTD-DF
   Ed Valeev, F. Pavosevic, A. Kumar             : LibInt (2-el integral package), F12 methods
   Garnet Chan, S. Sharma, J. Yang, R. Olivares  : DMRG
   Ulf Ekstrom                                   : XCFun DFT Library
   Mihaly Kallay                                 : mrcc  (arbitrary order and MRCC methods)
   Andreas Klamt, Michael Diedenhofen            : otool_cosmo (COSMO solvation model)
   Jiri Pittner, Ondrej Demel                    : Mk-CCSD
   Frank Weinhold                                : gennbo (NPA and NBO analysis)
   Christopher J. Cramer and Donald G. Truhlar   : smd solvation model
   Lars Goerigk                                  : TD-DFT with DH, B97 family of functionals
   V. Asgeirsson, H. Jonsson                     : NEB implementation
   FAccTs GmbH                                   : IRC, NEB, NEB-TS, Multilevel, MM, QM/MM, CI optimization
   S Lehtola, MJT Oliveira, MAL Marques          : LibXC Library


 Your calculation uses the libint2 library for the computation of 2-el integrals
 For citations please refer to: http://libint.valeyev.net

 Your ORCA version has been built with support for libXC version: 4.2.3
 For citations please refer to: https://tddft.org/programs/libxc/

 This ORCA versions uses:
   CBLAS   interface :  Fast vector & matrix operations
   LAPACKE interface :  Fast linear algebra routines
   SCALAPACK package :  Parallel linear algebra routines


SCAN-COORDS
----- Orbital basis set information -----
Your calculation utilizes the basis: 6-31G
   H-He, Li-Ne : W. J. Hehre, R. Ditchfield and J.A. Pople, J. Chem. Phys. 56, 2257 (1972).
                 Note: He and Ne are unpublished basis sets taken from the Gaussian program.
                 Note: Li and B from J. D. Dill and J. A. Pople, J. Chem. Phys. 62, 2921 (1975).
   Na - Ar     : M. M. Francl, W. J. Pietro, W. J. Hehre, J. S. Binkley, M. S. Gordon, 
                 D. J. DeFrees and J. A. Pople, J. Chem. Phys. 77, 3654 (1982).
   K - Zn      : V. A. Rassolov, J. A. Pople, M. A. Ratner, and T. L. Windus, J. Chem. Phys. 109, 1223 (1998).

================================================================================
                                        WARNINGS
                       Please study these warnings very carefully!
================================================================================


WARNING: The environment variable RSH_COMMAND is not set!
  ===> : All Displacements for the Numerical Hessian calculation
         will be started on localhost

WARNING: Geometry Optimization
  ===> : Switching off AutoStart
         For restart on a previous wavefunction, please use MOREAD

INFO   : the flag for use of LIBINT has been found!

================================================================================
                                       INPUT FILE
================================================================================
NAME = input.inp
|  1> ! PAL3
|  2> %method
|  3>         method HF
|  4>         runtyp OPT
|  5> end
|  6> %basis
|  7>         basis "6-31G"
|  8> end
|  9> ! NumFreq
| 10> %elprop
| 11>         Polar 1
| 12> end
| 13> %output
| 14>         XYZFile true
| 15>         Print [ P_AtPopMO_L ] 1
| 16>         Print [ P_OrbPopMO_L ] 1
| 17> end
| 18> %coords
| 19>         CTyp xyz
| 20>         Charge 0
| 21>         Mult 1
| 22>         Units Angs
| 23>         coords
| 24>         O       -0.4335117287      0.3700044147      1.8319453217                 
| 25> 	O        1.5353611596      1.3255936330      0.3425321474                 
| 26> 	O        1.3132904301     -1.4020776610     -0.4224588097                 
| 27> 	O       -1.0604456273     -1.3256793579      0.2669031912                 
| 28> 	O       -1.5923700887      0.9656532550      0.0277953313                 
| 29> 	O       -0.2092800777     -0.0484864063     -1.9239521242                 
| 30> 	O        2.7749003962     -0.1801785767      2.2895752191                 
| 31> 	Co       1.3083402952     -0.2690091833      1.1923434980                 
| 32> 	Mn       0.1490127367      0.1429394064     -0.0401139633
| 33>         end
| 34> end
| 35> 
| 36>                          ****END OF INPUT****
================================================================================

                       *****************************
                       * Geometry Optimization Run *
                       *****************************

Geometry optimization settings:
Update method            Update   .... BFGS
Choice of coordinates    CoordSys .... Z-matrix Internals
Initial Hessian          InHess   .... Almoef's Model

Convergence Tolerances:
Energy Change            TolE     ....  5.0000e-06 Eh
Max. Gradient            TolMAXG  ....  3.0000e-04 Eh/bohr
RMS Gradient             TolRMSG  ....  1.0000e-04 Eh/bohr
Max. Displacement        TolMAXD  ....  4.0000e-03 bohr
RMS Displacement         TolRMSD  ....  2.0000e-03 bohr
Strict Convergence                ....  False
------------------------------------------------------------------------------
                        ORCA OPTIMIZATION COORDINATE SETUP
------------------------------------------------------------------------------

The optimization will be done in new redundant internal coordinates
Making redundant internal coordinates   ...  (new redundants) done
Evaluating the initial hessian          ...  (Almloef) done
Evaluating the coordinates              ...  done
Calculating the B-matrix                .... done
Calculating the G-matrix                .... done
Diagonalizing the G-matrix              .... done
The first mode is                       ....   93
The number of degrees of freedom        ....   21

    -----------------------------------------------------------------
                    Redundant Internal Coordinates


    -----------------------------------------------------------------
         Definition                    Initial Value    Approx d2E/dq
    -----------------------------------------------------------------
      1. B(Co  7,O   6)                  1.8337         1.109276   
      2. B(Co  7,O   3)                  2.7539         0.037752   
      3. B(Co  7,O   0)                  1.9625         0.691169   
      4. B(Co  7,O   2)                  1.9727         0.665849   
      5. B(Co  7,O   1)                  1.8211         1.161921   
      6. B(Mn  8,O   1)                  1.8620         0.999888   
      7. B(Mn  8,Co  7)                  1.7415        17.589413   
      8. B(Mn  8,O   0)                  1.9737         0.663348   
      9. B(Mn  8,O   5)                  1.9271         0.787100   
     10. B(Mn  8,O   4)                  1.9271         0.787084   
     11. B(Mn  8,O   3)                  1.9271         0.787080   
     12. B(Mn  8,O   2)                  1.9720         0.667493   
     13. A(Co  7,O   0,Mn  8)           52.5159         0.562431   
     14. A(Co  7,O   1,Mn  8)           56.4222         0.673322   
     15. A(Co  7,O   2,Mn  8)           52.3955         0.559111   
     16. A(Co  7,O   3,Mn  8)           38.8595         0.343849   
     17. A(O   2,Co  7,O   3)           60.4417         0.334382   
     18. A(O   6,Co  7,Mn  8)          160.8086         1.327754   
     19. A(O   0,Co  7,Mn  8)           64.0721         1.201969   
     20. A(O   2,Co  7,O   6)          121.0391         0.616386   
     21. A(O   3,Co  7,Mn  8)           43.9723         0.665366   
     22. A(O   1,Co  7,Mn  8)           62.9743         1.340823   
     23. A(O   1,Co  7,O   2)           96.9290         0.621950   
     24. A(O   1,Co  7,O   6)           97.8803         0.687215   
     25. A(O   0,Co  7,O   2)          117.1315         0.562835   
     26. A(O   0,Co  7,O   6)          119.9375         0.620860   
     27. A(O   2,Co  7,Mn  8)           63.7824         1.192607   
     28. A(O   0,Co  7,O   3)           58.0636         0.336463   
     29. A(O   3,Co  7,O   6)          155.1724         0.364431   
     30. A(O   0,Co  7,O   1)           88.7175         0.626471   
     31. A(O   1,Co  7,O   3)          106.6416         0.367337   
     32. A(O   0,Mn  8,O   2)          116.6340         0.558711   
     33. A(O   4,Mn  8,O   5)           84.7704         0.595810   
     34. A(O   3,Mn  8,O   5)           87.8998         0.595809   
     35. A(O   1,Mn  8,O   5)          113.7284         0.624018   
     36. A(O   0,Mn  8,O   1)           87.2348         0.603700   
     37. A(O   0,Mn  8,O   5)          152.0974         0.576565   
     38. A(O   2,Mn  8,O   5)           80.9332         0.577253   
     39. A(O   3,Mn  8,O   4)           75.6777         0.595807   
     40. A(O   2,Mn  8,O   4)          151.0209         0.577251   
     41. A(O   1,Mn  8,O   4)          113.2277         0.624015   
     42. A(O   0,Mn  8,O   4)           69.5597         0.576563   
     43. A(O   5,Mn  8,Co  7)          142.3808         1.235195   
     44. A(O   2,Mn  8,O   3)           78.7177         0.577250   
     45. A(O   1,Mn  8,O   3)          156.7167         0.624015   
     46. A(O   2,Mn  8,Co  7)           63.8220         1.193223   
     47. A(O   1,Mn  8,Co  7)           60.6035         1.298985   
     48. A(O   0,Mn  8,O   3)           75.6015         0.576562   
     49. A(O   3,Mn  8,Co  7)           97.1682         1.235189   
     50. A(O   4,Mn  8,Co  7)          132.6562         1.235190   
     51. A(O   0,Mn  8,Co  7)           63.4121         1.191667   
     52. A(O   1,Mn  8,O   2)           95.6175         0.604426   
     53. D(O   6,Co  7,O   3,Mn  8)    177.5441         0.001509   
     54. D(O   0,Co  7,O   3,Mn  8)     84.4928         0.001509   
     55. D(O   1,Co  7,O   2,Mn  8)    -55.2450         0.003684   
     56. D(O   6,Co  7,O   1,Mn  8)    178.5999         0.008301   
     57. D(O   0,Co  7,O   2,Mn  8)     36.8719         0.003684   
     58. D(O   3,Co  7,O   2,Mn  8)     49.9874         0.003684   
     59. D(O   3,Co  7,O   1,Mn  8)     -5.3266         0.008301   
     60. D(O   0,Co  7,O   1,Mn  8)    -61.3445         0.008301   
     61. D(O   1,Co  7,O   3,Mn  8)      6.8404         0.001509   
     62. D(O   2,Co  7,O   0,Mn  8)    -36.7658         0.003855   
     63. D(O   3,Co  7,O   0,Mn  8)    -50.2153         0.003855   
     64. D(O   1,Co  7,O   0,Mn  8)     60.3640         0.003855   
     65. D(O   2,Co  7,O   1,Mn  8)     55.8353         0.008301   
     66. D(O   6,Co  7,O   2,Mn  8)   -158.7969         0.003684   
     67. D(O   6,Co  7,O   0,Mn  8)    158.7221         0.003855   
     68. D(O   2,Co  7,O   3,Mn  8)    -81.7407         0.001509   
     69. D(O   4,Mn  8,O   2,Co  7)   -132.1310         0.003847   
     70. D(O   4,Mn  8,Co  7,O   3)     77.1063         0.198063   
     71. D(O   1,Mn  8,O   2,Co  7)     53.2773         0.003847   
     72. D(O   5,Mn  8,O   1,Co  7)   -138.1980         0.006840   
     73. D(O   3,Mn  8,Co  7,O   0)    -69.9276         0.198063   
     74. D(O   2,Mn  8,Co  7,O   6)    109.4900         0.198063   
     75. D(O   3,Mn  8,O   1,Co  7)     18.7569         0.006840   
     76. D(O   4,Mn  8,O   1,Co  7)    127.1961         0.006840   
     77. D(O   3,Mn  8,Co  7,O   6)   -176.8625         0.198063   
     78. D(O   0,Mn  8,O   2,Co  7)    -36.4419         0.003847   
     79. D(O   4,Mn  8,Co  7,O   6)    -99.7561         0.198063   
     80. D(O   3,Mn  8,O   2,Co  7)   -103.8780         0.003847   
     81. D(O   5,Mn  8,Co  7,O   2)    -22.2464         0.198063   
     82. D(O   5,Mn  8,O   2,Co  7)    166.4661         0.003847   
     83. D(O   2,Mn  8,O   1,Co  7)    -55.6522         0.006840   
     84. D(O   1,Mn  8,Co  7,O   6)     -4.2225         0.198063   
     85. D(O   0,Mn  8,O   1,Co  7)     60.8497         0.006840   
     86. D(O   5,Mn  8,O   0,Co  7)    161.3675         0.003818   
     87. D(O   1,Mn  8,Co  7,O   0)    102.7123         0.198063   
     88. D(O   0,Mn  8,Co  7,O   6)   -106.9348         0.198063   
     89. D(O   4,Mn  8,O   0,Co  7)   -174.3715         0.003818   
     90. D(O   0,Mn  8,Co  7,O   3)     69.9276         0.198063   
     91. D(O   0,Mn  8,Co  7,O   2)    143.5752         0.198063   
     92. D(O   3,Mn  8,O   0,Co  7)    105.8164         0.003818   
     93. D(O   1,Mn  8,Co  7,O   2)   -113.7125         0.198063   
     94. D(O   1,Mn  8,Co  7,O   3)    172.6400         0.198063   
     95. D(O   0,Mn  8,Co  7,O   1)   -102.7123         0.198063   
     96. D(O   2,Mn  8,Co  7,O   0)   -143.5752         0.198063   
     97. D(O   2,Mn  8,Co  7,O   1)    113.7125         0.198063   
     98. D(O   2,Mn  8,Co  7,O   3)    -73.6475         0.198063   
     99. D(O   5,Mn  8,O   3,Co  7)    142.5845         0.004776   
    100. D(O   2,Mn  8,O   0,Co  7)     36.5924         0.003818   
    101. D(O   3,Mn  8,Co  7,O   1)   -172.6400         0.198063   
    102. D(O   3,Mn  8,Co  7,O   2)     73.6475         0.198063   
    103. D(O   4,Mn  8,O   3,Co  7)   -132.2784         0.004776   
    104. D(O   4,Mn  8,Co  7,O   0)      7.1787         0.198063   
    105. D(O   4,Mn  8,Co  7,O   1)    -95.5336         0.198063   
    106. D(O   4,Mn  8,Co  7,O   2)    150.7539         0.198063   
    107. D(O   2,Mn  8,O   3,Co  7)     61.4133         0.004776   
    108. D(O   1,Mn  8,O   0,Co  7)    -58.3073         0.003818   
    109. D(O   5,Mn  8,Co  7,O   0)   -165.8216         0.198063   
    110. D(O   5,Mn  8,Co  7,O   1)     91.4661         0.198063   
    111. D(O   1,Mn  8,O   3,Co  7)    -16.4010         0.004776   
    112. D(O   5,Mn  8,Co  7,O   3)    -95.8940         0.198063   
    113. D(O   5,Mn  8,Co  7,O   6)     87.2436         0.198063   
    114. D(O   0,Mn  8,O   3,Co  7)    -60.1314         0.004776   
    -----------------------------------------------------------------

Number of atoms                         .... 9
Number of degrees of freedom            .... 114

         *************************************************************
         *                GEOMETRY OPTIMIZATION CYCLE   1            *
         *************************************************************
---------------------------------
CARTESIAN COORDINATES (ANGSTROEM)
---------------------------------
  O     -0.433512    0.370004    1.831945
  O      1.535361    1.325594    0.342532
  O      1.313290   -1.402078   -0.422459
  O     -1.060446   -1.325679    0.266903
  O     -1.592370    0.965653    0.027795
  O     -0.209280   -0.048486   -1.923952
  O      2.774900   -0.180179    2.289575
  Co     1.308340   -0.269009    1.192343
  Mn     0.149013    0.142939   -0.040114

----------------------------
CARTESIAN COORDINATES (A.U.)
----------------------------
  NO LB      ZA    FRAG     MASS         X           Y           Z
   0 O     8.0000    0    15.999   -0.819218    0.699207    3.461875
   1 O     8.0000    0    15.999    2.901412    2.505009    0.647292
   2 O     8.0000    0    15.999    2.481759   -2.649543   -0.798331
   3 O     8.0000    0    15.999   -2.003952   -2.505171    0.504374
   4 O     8.0000    0    15.999   -3.009143    1.824820    0.052526
   5 O     8.0000    0    15.999   -0.395482   -0.091626   -3.635743
   6 O     8.0000    0    15.999    5.243802   -0.340488    4.326670
   7 Co   27.0000    0    58.930    2.472405   -0.508354    2.253203
   8 Mn   25.0000    0    54.940    0.281593    0.270116   -0.075804

--------------------------------
INTERNAL COORDINATES (ANGSTROEM)
--------------------------------
 O      0   0   0     0.000000000000     0.00000000     0.00000000
 O      1   0   0     2.647255712656     0.00000000     0.00000000
 O      2   1   0     2.841604698310    75.33549345     0.00000000
 O      1   2   3     2.391180971845    94.74595261   332.66493077
 O      1   2   3     2.225467912003    80.47715259   272.63739322
 O      3   2   1     2.530792842078    72.14147377    90.11090731
 O      2   1   3     2.755863601420    74.91747381   284.46051296
 Co     2   1   3     1.821119421189    47.82988567   320.67726009
 Mn     8   2   1     1.741463012058    62.97428250    61.34453318

---------------------------
INTERNAL COORDINATES (A.U.)
---------------------------
 O      0   0   0     0.000000000000     0.00000000     0.00000000
 O      1   0   0     5.002588303379     0.00000000     0.00000000
 O      2   1   0     5.369854660670    75.33549345     0.00000000
 O      1   2   3     4.518677173430    94.74595261   332.66493077
 O      1   2   3     4.205524873514    80.47715259   272.63739322
 O      3   2   1     4.782505373215    72.14147377    90.11090731
 O      2   1   3     5.207827469125    74.91747381   284.46051296
 Co     2   1   3     3.441416963213    47.82988567   320.67726009
 Mn     8   2   1     3.290888165144    62.97428250    61.34453318

---------------------
BASIS SET INFORMATION
---------------------
There are 3 groups of distinct atoms

 Group   1 Type O   : 10s4p contracted to 3s2p pattern {631/31}
 Group   2 Type Co  : 22s16p4d contracted to 5s4p2d pattern {66631/6631/31}
 Group   3 Type Mn  : 22s16p4d contracted to 5s4p2d pattern {66631/6631/31}

Atom   0O    basis set group =>   1
Atom   1O    basis set group =>   1
Atom   2O    basis set group =>   1
Atom   3O    basis set group =>   1
Atom   4O    basis set group =>   1
Atom   5O    basis set group =>   1
Atom   6O    basis set group =>   1
Atom   7Co   basis set group =>   2
Atom   8Mn   basis set group =>   3


           ************************************************************
           *        Program running with 3 parallel MPI-processes     *
           *              working on a common directory               *
           ************************************************************
------------------------------------------------------------------------------
                           ORCA GTO INTEGRAL CALCULATION
------------------------------------------------------------------------------

                         BASIS SET STATISTICS AND STARTUP INFO

 # of primitive gaussian shells          ...  182
 # of primitive gaussian functions       ...  334
 # of contracted shells                  ...   57
 # of contracted basis functions         ...  117
 Highest angular momentum                ...    2
 Maximum contraction depth               ...    6
 Integral package used                   ... LIBINT
 Integral threshhold            Thresh   ...  2.500e-11
 Primitive cut-off              TCut     ...  2.500e-12


------------------------------ INTEGRAL EVALUATION ----------------------------


 * One electron integrals 
 Pre-screening matrix                    ... done
 Shell pair data                         ... done (   0.001 sec)



           ************************************************************
           *        Program running with 3 parallel MPI-processes     *
           *              working on a common directory               *
           ************************************************************
-------------------------------------------------------------------------------
                                 ORCA SCF
-------------------------------------------------------------------------------

------------
SCF SETTINGS
------------
Hamiltonian:
 Ab initio Hamiltonian  Method          .... Hartree-Fock(GTOs)


General Settings:
 Integral files         IntName         .... input
 Hartree-Fock type      HFTyp           .... RHF
 Total Charge           Charge          ....    0
 Multiplicity           Mult            ....    1
 Number of Electrons    NEL             ....  108
 Basis Dimension        Dim             ....  117
 Nuclear Repulsion      ENuc            ....   1147.0510550578 Eh

Convergence Acceleration:
 DIIS                   CNVDIIS         .... on
   Start iteration      DIISMaxIt       ....    12
   Startup error        DIISStart       ....  0.200000
   # of expansion vecs  DIISMaxEq       ....     5
   Bias factor          DIISBfac        ....   1.050
   Max. coefficient     DIISMaxC        ....  10.000
 Newton-Raphson         CNVNR           .... off
 SOSCF                  CNVSOSCF        .... off
 Level Shifting         CNVShift        .... on
   Level shift para.    LevelShift      ....    0.2500
   Turn off err/grad.   ShiftErr        ....    0.0010
 Zerner damping         CNVZerner       .... off
 Static damping         CNVDamp         .... on
   Fraction old density DampFac         ....    0.7000
   Max. Damping (<1)    DampMax         ....    0.9800
   Min. Damping (>=0)   DampMin         ....    0.0000
   Turn off err/grad.   DampErr         ....    0.1000
 Fernandez-Rico         CNVRico         .... off

SCF Procedure:
 Maximum # iterations   MaxIter         ....   125
 SCF integral mode      SCFMode         .... Direct
   Integral package                     .... LIBINT
 Reset frequency        DirectResetFreq ....    20
 Integral Threshold     Thresh          ....  2.500e-11 Eh
 Primitive CutOff       TCut            ....  2.500e-12 Eh

Convergence Tolerance:
 Convergence Check Mode ConvCheckMode   .... Total+1el-Energy
 Convergence forced     ConvForced      .... 0
 Energy Change          TolE            ....  1.000e-08 Eh
 1-El. energy change                    ....  1.000e-05 Eh
 DIIS Error             TolErr          ....  5.000e-07


Diagonalization of the overlap matrix:
Smallest eigenvalue                        ... 1.016e-03
Time for diagonalization                   ...    0.007 sec
Threshold for overlap eigenvalues          ... 1.000e-08
Number of eigenvalues below threshold      ... 0
Time for construction of square roots      ...    0.003 sec
Total time needed                          ...    0.010 sec

-------------------
DFT GRID GENERATION
-------------------

General Integration Accuracy     IntAcc      ...  4.340
Radial Grid Type                 RadialGrid  ... Gauss-Chebyshev
Angular Grid (max. acc.)         AngularGrid ... Lebedev-110
Angular grid pruning method      GridPruning ... 3 (G Style)
Weight generation scheme         WeightScheme... Becke
Basis function cutoff            BFCut       ...    1.0000e-11
Integration weight cutoff        WCut        ...    1.0000e-14
Grids for H and He will be reduced by one unit

# of grid points (after initial pruning)     ...  17836 (   0.0 sec)
# of grid points (after weights+screening)   ...  17163 (   0.0 sec)
nearest neighbour list constructed           ...    0.0 sec
Grid point re-assignment to atoms done       ...    0.0 sec
Grid point division into batches done        ...    0.0 sec
Reduced shell lists constructed in    0.1 sec

Total number of grid points                  ...    17163
Total number of batches                      ...      271
Average number of points per batch           ...       63
Average number of grid points per atom       ...     1907
Average number of shells per batch           ...    35.92 (63.02%)
Average number of basis functions per batch  ...    80.75 (69.02%)
Average number of large shells per batch     ...    28.65 (79.76%)
Average number of large basis fcns per batch ...    64.48 (79.85%)
Maximum spatial batch extension              ...  20.84, 18.91, 23.12 au
Average spatial batch extension              ...   1.48,  1.47,  1.47 au

Time for grid setup =    0.118 sec

------------------------------
INITIAL GUESS: MODEL POTENTIAL
------------------------------
Loading Hartree-Fock densities                     ... done
Calculating cut-offs                               ... done
Setting up the integral package                    ... done
Initializing the effective Hamiltonian             ... done
Starting the Coulomb interaction                   ... done (   0.0 sec)
Reading the grid                                   ... done
Mapping shells                                     ... done
Starting the XC term evaluation                    ... done (   0.0 sec)
Transforming the Hamiltonian                       ... done (   0.0 sec)
Diagonalizing the Hamiltonian                      ... done (   0.0 sec)
Back transforming the eigenvectors                 ... done (   0.0 sec)
Now organizing SCF variables                       ... done
                      ------------------
                      INITIAL GUESS DONE (   0.4 sec)
                      ------------------
--------------
SCF ITERATIONS
--------------
ITER       Energy         Delta-E        Max-DP      RMS-DP      [F,P]     Damp
               ***  Starting incremental Fock matrix formation  ***
  0  -3047.4323374864   0.000000000000 0.78419886  0.02259191  0.9985289 0.7000
  1  -3049.6882457533  -2.255908266945 0.27732927  0.00714108  0.2397677 0.7000
  2  -3050.5678718257  -0.879626072373 0.23292491  0.00516852  0.2415069 0.7000
                               ***Turning on DIIS***
  3  -3051.0105289002  -0.442657074508 0.10727524  0.00360262  0.1153638 0.7000
  4  -3050.8120119999   0.198516900327 0.28719470  0.01026877  0.0789177 0.0000
  5  -3053.6134558142  -2.801443814295 0.16400945  0.00395790  0.0935475 0.0000
  6  -3052.1929789949   1.420476819322 0.06585475  0.00228267  0.0623212 0.0000
  7  -3053.7375182593  -1.544539264476 0.05086820  0.00196583  0.0571102 0.0000
  8  -3053.1898955186   0.547622740733 0.03906931  0.00209686  0.0467999 0.0000
  9  -3053.2545916137  -0.064696095094 0.05468489  0.00261662  0.0455615 0.0000
 10  -3052.7804784750   0.474113138712 0.03212918  0.00166449  0.0500300 0.0000
 11  -3053.4770369941  -0.696558519126 0.03202459  0.00198102  0.0363953 0.0000
 12  -3053.0674719335   0.409565060630 0.04194677  0.00201981  0.0374302 0.0000
 13  -3053.3024738152  -0.235001881724 0.03327464  0.00197385  0.0358362 0.0000
 14  -3053.0358489091   0.266624906085 0.03877646  0.00197256  0.0310842 0.0000
 15  -3053.1252016272  -0.089352718111 0.04086304  0.00201480  0.0338477 0.0000
 16  -3053.1118990324   0.013302594819 0.03492400  0.00167735  0.0333077 0.0000
 17  -3053.0373332484   0.074565784040 0.03476604  0.00184038  0.0294985 0.0000
 18  -3052.8722435954   0.165089652924 0.03352459  0.00165858  0.0240773 0.0000
 19  -3053.1747273927  -0.302483797234 0.01999315  0.00133580  0.0128084 0.0000
               *** Restarting incremental Fock matrix formation ***
                                   *** Resetting DIIS ***
 20  -3053.2231285887  -0.048401196047 0.00791478  0.00060238  0.0106683 0.0000
 21  -3053.3520721364  -0.128943547726 0.00729629  0.00044483  0.0107879 0.0000
 22  -3053.1839703412   0.168101795221 0.01244466  0.00075281  0.0108506 0.0000
 23  -3053.2292605088  -0.045290167543 0.01508796  0.00081660  0.0106897 0.0000
 24  -3053.2308094054  -0.001548896648 0.01342411  0.00069665  0.0104298 0.0000
 25  -3053.2592598824  -0.028450476932 0.01272012  0.00062008  0.0102574 0.0000
 26  -3053.2517419412   0.007517941105 0.01284151  0.00060761  0.0101325 0.0000
 27  -3053.2701161098  -0.018374168520 0.01483808  0.00067616  0.0100052 0.0000
 28  -3053.2617408363   0.008375273485 0.01265927  0.00057991  0.0100960 0.0000
 29  -3053.2676585161  -0.005917679863 0.01202947  0.00054533  0.0102376 0.0000
 30  -3053.2619918818   0.005666634341 0.00768782  0.00036416  0.0103315 0.0000
 31  -3053.2458404020   0.016151479801 0.00409831  0.00020560  0.0104841 0.0000
 32  -3053.2536203599  -0.007779957898 0.00135382  0.00008417  0.0106522 0.0000
 33  -3053.2443809185   0.009239441396 0.00043559  0.00002114  0.0107977 0.0000
 34  -3053.2499399937  -0.005559075206 0.00293499  0.00012733  0.0108813 0.0000
 35  -3053.2596807747  -0.009740780961 0.00532417  0.00023317  0.0108205 0.0000
 36  -3053.2597195598  -0.000038785091 0.00629528  0.00027875  0.0107568 0.0000
 37  -3053.2605222120  -0.000802652240 0.00614929  0.00027492  0.0106992 0.0000
 38  -3053.2634402174  -0.002918005422 0.00407209  0.00018919  0.0106652 0.0000
 39  -3053.2581270865   0.005313130898 0.00156551  0.00008162  0.0107109 0.0000
               *** Restarting incremental Fock matrix formation ***
                                   *** Resetting DIIS ***
 40  -3053.2644783768  -0.006351290291 0.00705676  0.00030676  0.0108100 0.0000
 41  -3053.2660109742  -0.001532597417 0.00689238  0.00030661  0.0106299 0.0000
 42  -3053.2672829664  -0.001271992164 0.00574864  0.00026234  0.0105143 0.0000
 43  -3053.2682886015  -0.001005635055 0.00340819  0.00016202  0.0104714 0.0000
 44  -3053.2682615542   0.000027047266 0.00076583  0.00003402  0.0105203 0.0000
 45  -3053.2710791081  -0.002817553958 0.00326549  0.00014256  0.0106914 0.0000
 46  -3053.2714720503  -0.000392942124 0.00382865  0.00017217  0.0105489 0.0000
 47  -3053.2715614492  -0.000089398934 0.00478717  0.00021630  0.0104733 0.0000
 48  -3053.2725554552  -0.000994006014 0.00456463  0.00020975  0.0104286 0.0000
 49  -3053.2737612065  -0.001205751325 0.00325300  0.00015322  0.0106074 0.0000
 50  -3053.2750243764  -0.001263169826 0.00163034  0.00008080  0.0107798 0.0000
 51  -3053.2766058764  -0.001581500028 0.00209572  0.00009715  0.0109069 0.0000
 52  -3053.2770191296  -0.000413253205 0.00353049  0.00015623  0.0109865 0.0000
 53  -3053.2771077192  -0.000088589597 0.00443860  0.00019490  0.0110735 0.0000
 54  -3053.2778907140  -0.000782994799 0.00439443  0.00019330  0.0111963 0.0000
 55  -3053.2793199571  -0.001429243129 0.00346325  0.00015473  0.0113435 0.0000
 56  -3053.2809384739  -0.001618516733 0.00240560  0.00010976  0.0114935 0.0000
 57  -3053.2823970740  -0.001458600099 0.00246507  0.00010832  0.0116192 0.0000
 58  -3053.2828435957  -0.000446521774 0.00346052  0.00014634  0.0117091 0.0000
 59  -3053.2828654580  -0.000021862290 0.00426358  0.00017860  0.0117903 0.0000
               *** Restarting incremental Fock matrix formation ***
                                   *** Resetting DIIS ***
 60  -3053.2815078155   0.001357642491 0.00767733  0.00031198  0.0118911 0.0000
 61  -3053.2833106809  -0.001802865339 0.00747106  0.00030351  0.0119949 0.0000
 62  -3053.2863328657  -0.003022184818 0.00572878  0.00023668  0.0121571 0.0000
 63  -3053.2907776617  -0.004444796024 0.00214998  0.00009611  0.0123472 0.0000
 64  -3053.2968057233  -0.006028061612 0.00228761  0.00008038  0.0125407 0.0000
 65  -3053.2948751215   0.001930601787 0.00504313  0.00019004  0.0126644 0.0000
 66  -3053.2907099719   0.004165149652 0.00564437  0.00022301  0.0125738 0.0000
 67  -3053.2899494227   0.000760549150 0.00616739  0.00024464  0.0126546 0.0000
 68  -3053.2917452128  -0.001795790084 0.00483329  0.00019661  0.0127682 0.0000
 69  -3053.2947998889  -0.003054676092 0.00250425  0.00010494  0.0129162 0.0000
 70  -3053.2984573027  -0.003657413810 0.00118396  0.00005016  0.0130672 0.0000
 71  -3053.2990297948  -0.000572492126 0.00325392  0.00012599  0.0131534 0.0000
 72  -3053.2967124015   0.002317393366 0.00516129  0.00019995  0.0131633 0.0000
 73  -3053.2958306807   0.000881720808 0.00587951  0.00022969  0.0131940 0.0000
 74  -3053.2972366774  -0.001405996739 0.00523474  0.00020797  0.0132617 0.0000
 75  -3053.2999287762  -0.002692098777 0.00374836  0.00014966  0.0133625 0.0000
 76  -3053.3030570197  -0.003128243529 0.00249711  0.00009962  0.0134804 0.0000
 77  -3053.3045944237  -0.001537403962 0.00297709  0.00011752  0.0135764 0.0000
 78  -3053.3035299951   0.001064428608 0.00446456  0.00017379  0.0136152 0.0000
 79  -3053.3023078129   0.001222182189 0.00554848  0.00021637  0.0136297 0.0000
               *** Restarting incremental Fock matrix formation ***
                                   *** Resetting DIIS ***
 80  -3053.3002522076   0.002055605310 0.00838045  0.00032452  0.0136553 0.0000
 81  -3053.3022033522  -0.001951144666 0.00837153  0.00032234  0.0136360 0.0000
 82  -3053.3051621789  -0.002958826661 0.00747397  0.00028869  0.0136660 0.0000
 83  -3053.3094199881  -0.004257809224 0.00531292  0.00020487  0.0137296 0.0000
 84  -3053.3162947081  -0.006874719982 0.00122415  0.00005189  0.0138410 0.0000
 85  -3053.3195818127  -0.003287104557 0.00156391  0.00006028  0.0140171 0.0000
 86  -3053.3157652088   0.003816603888 0.00447193  0.00017130  0.0140434 0.0000
 87  -3053.3112976524   0.004467556365 0.00681849  0.00025861  0.0139763 0.0000
 88  -3053.3102903308   0.001007321612 0.00861168  0.00032523  0.0139114 0.0000
 89  -3053.3106159232  -0.000325592408 0.01007130  0.00038124  0.0138329 0.0000
 90  -3053.3119201733  -0.001304250090 0.01089081  0.00041410  0.0137268 0.0000
 91  -3053.3130044485  -0.001084275187 0.01181866  0.00045001  0.0136050 0.0000
 92  -3053.3133311428  -0.000326694289 0.01466983  0.00053590  0.0134465 0.0000
 93  -3053.3117466751   0.001584467692 0.02035539  0.00070777  0.0131731 0.0000
 94  -3053.3117926517  -0.000045976623 0.02891793  0.00095229  0.0128614 0.0000
 95  -3053.3149306568  -0.003138005059 0.03354801  0.00105374  0.0125120 0.0000
 96  -3053.3235498746  -0.008619217827 0.03651505  0.00110603  0.0120859 0.0000
 97  -3053.3179584961   0.005591378497 0.04175824  0.00123044  0.0115744 0.0000
 98  -3053.3466937942  -0.028735298134 0.04096933  0.00120876  0.0107864 0.0000
 99  -3053.3372061264   0.009487667857 0.03572942  0.00107898  0.0098845 0.0000
               *** Restarting incremental Fock matrix formation ***
                                   *** Resetting DIIS ***
100  -3053.3590780856  -0.021871959239 0.00610915  0.00027773  0.0090588 0.0000
101  -3053.4206857463  -0.061607660690 0.00452107  0.00018199  0.0098439 0.0000
102  -3053.3473872482   0.073298498098 0.00817876  0.00028656  0.0101117 0.0000
103  -3053.3630419109  -0.015654662741 0.01244701  0.00042181  0.0101024 0.0000
104  -3053.3464395253   0.016602385616 0.02723335  0.00089928  0.0097347 0.0000
105  -3053.3776068880  -0.031167362660 0.03680455  0.00113443  0.0082528 0.0000
106  -3053.3639331278   0.013673760217 0.02951682  0.00095940  0.0061625 0.0000
107  -3053.3633765974   0.000556530354 0.01553527  0.00052410  0.0053542 0.0000
108  -3053.3628809001   0.000495697329 0.02376908  0.00078147  0.0043818 0.0000
109  -3053.3491308397   0.013750060374 0.01451461  0.00049211  0.0040719 0.0000
110  -3053.3663491927  -0.017218353027 0.01946866  0.00062960  0.0033672 0.0000
111  -3053.3579797585   0.008369434215 0.01317705  0.00044775  0.0031952 0.0000
112  -3053.3597900463  -0.001810287796 0.01088001  0.00038545  0.0028889 0.0000
113  -3053.3640177763  -0.004227729994 0.01198036  0.00041486  0.0030085 0.0000
114  -3053.3613229760   0.002694800269 0.01494409  0.00050516  0.0030742 0.0000
115  -3053.3661332967  -0.004810320695 0.01472330  0.00050286  0.0030694 0.0000
116  -3053.3740059982  -0.007872701455 0.00800094  0.00028903  0.0030980 0.0000
117  -3053.3683183535   0.005687644711 0.01587735  0.00054406  0.0030959 0.0000
118  -3053.3819731129  -0.013654759377 0.00485556  0.00016481  0.0029276 0.0000
119  -3053.3632812069   0.018691905913 0.02094748  0.00067881  0.0029282 0.0000
               *** Restarting incremental Fock matrix formation ***
                                   *** Resetting DIIS ***
120  -3053.3792494608  -0.015968253838 0.00161333  0.00007341  0.0024628 0.0000
121  -3053.3788924954   0.000356965355 0.00171958  0.00005510  0.0025857 0.0000
122  -3053.3797785243  -0.000886028819 0.00236704  0.00006542  0.0025898 0.0000
123  -3053.3786770582   0.001101466041 0.00337618  0.00008709  0.0025296 0.0000
124  -3053.3770932041   0.001583854135 0.00534059  0.00013073  0.0023889 0.0000

               *****************************************************
               *                      ERROR                        *
               *        SCF NOT CONVERGED AFTER 125 CYCLES         *
               *****************************************************


---------------
SCF CONVERGENCE
---------------

  Last Energy change         ...    1.5839e-03  Tolerance :   1.0000e-08
  Last MAX-Density change    ...    5.3406e-03  Tolerance :   1.0000e-07
  Last RMS-Density change    ...    1.3073e-04  Tolerance :   5.0000e-09
  Last DIIS Error            ...    2.3889e-03  Tolerance :   5.0000e-07

             **** DENSITY FILE WAS UPDATED (input.scfp) ****
             **** ENERGY FILE WAS UPDATED (input.en.tmp) ****

     --------------------------------------------------------------------
                                      WARNING
     The wavefunction IS NOT YET CONVERGED! It shows however signs of
     convergence. Therefore the wavefunction will be stored and can be
     used as input for another calculation. 
     DO NOT USE THIS WAVEFUNCTION  FOR ANYHTING ELSE. It is NOT RELIABLE
     --------------------------------------------------------------------

-------
TIMINGS
-------

Total SCF time: 0 days 0 hours 5 min 11 sec 

Total time                  ....     311.242 sec
Sum of individual times     ....     310.717 sec  ( 99.8%)

Fock matrix formation       ....     309.299 sec  ( 99.4%)
Diagonalization             ....       0.632 sec  (  0.2%)
Density matrix formation    ....       0.048 sec  (  0.0%)
Population analysis         ....       0.000 sec  (  0.0%)
Initial guess               ....       0.250 sec  (  0.1%)
Orbital Transformation      ....       0.000 sec  (  0.0%)
Orbital Orthonormalization  ....       0.000 sec  (  0.0%)
DIIS solution               ....       0.370 sec  (  0.1%)

-------------------------   --------------------
FINAL SINGLE POINT ENERGY     -3053.377093204076   (Wavefunction not fully converged!)
-------------------------   --------------------



           ************************************************************
           *        Program running with 3 parallel MPI-processes     *
           *              working on a common directory               *
           ************************************************************
------------------------------------------------------------------------------
                         ORCA SCF GRADIENT CALCULATION
------------------------------------------------------------------------------

Gradient of the Hartree-Fock SCF energy:
Hartree-Fock type                ... RHF
Number of operators              ...    1
Number of atoms                  ...    9
Basis set dimensions             ...  117
Integral neglect threshold       ... 2.5e-11
Integral primitive cutoff        ... 2.5e-12

Nuclear repulsion gradient       ... done
One Electron Gradient            ... done
Pre-screening matrix             ... done
Starting the two electron gradient:
Two electron gradient done

------------------
CARTESIAN GRADIENT
------------------

   1   O   :   -0.017183530    0.025474479    0.071912626
   2   O   :    0.001487877    0.043131398   -0.008779005
   3   O   :    0.031208772   -0.071539669   -0.052041415
   4   O   :    0.008512831    0.030811645   -0.013863435
   5   O   :    0.006773791   -0.022262012   -0.041102416
   6   O   :   -0.018000680    0.013696532    0.036307966
   7   O   :   -0.059015266   -0.002794619   -0.030643055
   8   Co  :   -0.189409086    0.079122094   -0.220874529
   9   Mn  :    0.235625291   -0.095639848    0.259083263

Difference to translation invariance:
           :   -0.0000000001   -0.0000000000    0.0000000001

Norm of the cartesian gradient     ...    0.4992714080
RMS gradient                       ...    0.0960848273
MAX gradient                       ...    0.2590832629

-------
TIMINGS
-------

Total SCF gradient time            ...       11.426 sec

One electron gradient       ....       0.057 sec  (  0.5%)
Prescreening matrices       ....       0.245 sec  (  2.1%)
Two electron gradient       ....      10.578 sec  ( 92.6%)
------------------------------------------------------------------------------
                         ORCA GEOMETRY RELAXATION STEP
------------------------------------------------------------------------------

Reading the OPT-File                    .... done
Getting information on internals        .... done
Copying old internal coords+grads       .... done
Making the new internal coordinates     .... (new redundants).... done
Validating the new internal coordinates .... (new redundants).... done
Calculating the B-matrix                .... done
Calculating the G,G- and P matrices     .... done
Transforming gradient to internals      .... done
Projecting the internal gradient        .... done
Number of atoms                         ....   9
Number of internal coordinates          .... 114
Current Energy                          .... -3053.377093204 Eh
Current gradient norm                   ....     0.499271408 Eh/bohr
Maximum allowed component of the step   ....  0.300
Current trust radius                    ....  0.300
Evaluating the initial hessian          ....  (Almloef) done
Projecting the Hessian                  .... done
Forming the augmented Hessian           .... done
Diagonalizing the augmented Hessian     .... done
Last element of RFO vector              ....  0.969633714
Lowest eigenvalues of augmented Hessian:
 -0.039274792  0.100838482  0.166759639  0.181463733  0.188950445
Length of the computed step             ....  0.252220780
The final length of the internal step   ....  0.252220780
Converting the step to cartesian space:
 Initial RMS(Int)=    0.0236226404
Transforming coordinates:
 Iter   0:  RMS(Cart)=    0.0444834081 RMS(Int)=    0.0237759584
 Iter   1:  RMS(Cart)=    0.0008707257 RMS(Int)=    0.0005504143
 Iter   2:  RMS(Cart)=    0.0000278700 RMS(Int)=    0.0000142807
 Iter   3:  RMS(Cart)=    0.0000011371 RMS(Int)=    0.0000006116
 Iter   4:  RMS(Cart)=    0.0000000389 RMS(Int)=    0.0000000219
done
Storing new coordinates                 .... done

                                .--------------------.
          ----------------------|Geometry convergence|-------------------------
          Item                value                   Tolerance       Converged
          ---------------------------------------------------------------------
          RMS gradient        0.0256796161            0.0001000000      NO
          MAX gradient        0.1525875561            0.0003000000      NO
          RMS step            0.0236226404            0.0020000000      NO
          MAX step            0.0946521446            0.0040000000      NO
          ........................................................
          Max(Bonds)      0.0365      Max(Angles)    4.00
          Max(Dihed)        5.42      Max(Improp)    0.00
          ---------------------------------------------------------------------

The optimization has not yet converged - more geometry cycles are needed


    ---------------------------------------------------------------------------
                         Redundant Internal Coordinates
                            (Angstroem and degrees)

        Definition                    Value    dE/dq     Step     New-Value
    ----------------------------------------------------------------------------
     1. B(Co  7,O   6)                1.8337 -0.065643  0.0302    1.8640   
     2. B(Co  7,O   3)                2.7539 -0.051082  0.0065    2.7604   
     3. B(Co  7,O   0)                1.9625 -0.004589 -0.0139    1.9486   
     4. B(Co  7,O   2)                1.9727  0.014696 -0.0338    1.9389   
     5. B(Co  7,O   1)                1.8211 -0.006207 -0.0128    1.8083   
     6. B(Mn  8,O   1)                1.8620 -0.014533 -0.0044    1.8576   
     7. B(Mn  8,Co  7)                1.7415 -0.152588  0.0111    1.7526   
     8. B(Mn  8,O   0)                1.9737  0.024434 -0.0365    1.9372   
     9. B(Mn  8,O   5)                1.9271 -0.033491  0.0214    1.9486   
    10. B(Mn  8,O   4)                1.9271 -0.017071  0.0109    1.9381   
    11. B(Mn  8,O   3)                1.9271  0.003401  0.0186    1.9458   
    12. B(Mn  8,O   2)                1.9720  0.024129 -0.0336    1.9384   
    13. A(Co  7,O   0,Mn  8)           52.52 -0.048426    1.09     53.60   
    14. A(Co  7,O   1,Mn  8)           56.42 -0.046527    0.67     57.09   
    15. A(Co  7,O   2,Mn  8)           52.40 -0.050750    1.32     53.72   
    16. A(Co  7,O   3,Mn  8)           38.86 -0.031938    0.26     39.12   
    17. A(O   2,Co  7,O   3)           60.44  0.016139   -0.51     59.93   
    18. A(O   6,Co  7,Mn  8)          160.81  0.001558   -0.40    160.40   
    19. A(O   0,Co  7,Mn  8)           64.07  0.032458   -1.22     62.86   
    20. A(O   2,Co  7,O   6)          121.04 -0.025586    0.58    121.62   
    21. A(O   3,Co  7,Mn  8)           43.97  0.007392    0.50     44.47   
    22. A(O   1,Co  7,Mn  8)           62.97  0.022251   -0.10     62.87   
    23. A(O   1,Co  7,O   2)           96.93  0.026992   -0.68     96.25   
    24. A(O   1,Co  7,O   6)           97.88 -0.020778   -0.30     97.58   
    25. A(O   0,Co  7,O   2)          117.13  0.049910   -1.82    115.32   
    26. A(O   0,Co  7,O   6)          119.94 -0.032086    1.47    121.41   
    27. A(O   2,Co  7,Mn  8)           63.78  0.027927   -0.66     63.13   
    28. A(O   0,Co  7,O   3)           58.06  0.026387   -0.98     57.09   
    29. A(O   3,Co  7,O   6)          155.17 -0.008877   -0.08    155.09   
    30. A(O   0,Co  7,O   1)           88.72  0.025955    0.08     88.79   
    31. A(O   1,Co  7,O   3)          106.64  0.030001    0.44    107.08   
    32. A(O   0,Mn  8,O   2)          116.63  0.032733   -0.75    115.89   
    33. A(O   4,Mn  8,O   5)           84.77 -0.023202    4.00     88.77   
    34. A(O   3,Mn  8,O   5)           87.90 -0.025595    0.72     88.62   
    35. A(O   1,Mn  8,O   5)          113.73 -0.014023   -0.23    113.49   
    36. A(O   0,Mn  8,O   1)           87.23  0.019468    0.50     87.73   
    37. A(O   0,Mn  8,O   5)          152.10 -0.025037    0.94    153.04   
    38. A(O   2,Mn  8,O   5)           80.93 -0.012330   -0.62     80.31   
    39. A(O   3,Mn  8,O   4)           75.68 -0.018114    0.91     76.59   
    40. A(O   2,Mn  8,O   4)          151.02 -0.025088    1.91    152.93   
    41. A(O   1,Mn  8,O   4)          113.23 -0.004441   -0.65    112.58   
    42. A(O   0,Mn  8,O   4)           69.56 -0.005334   -2.62     66.94   
    43. A(O   5,Mn  8,Co  7)          142.38  0.011175   -1.37    141.01   
    44. A(O   2,Mn  8,O   3)           78.72  0.002620   -0.41     78.31   
    45. A(O   1,Mn  8,O   3)          156.72  0.048248   -1.10    155.61   
    46. A(O   2,Mn  8,Co  7)           63.82  0.022823   -0.67     63.15   
    47. A(O   1,Mn  8,Co  7)           60.60  0.024276   -0.57     60.03   
    48. A(O   0,Mn  8,O   3)           75.60  0.013981   -0.72     74.88   
    49. A(O   3,Mn  8,Co  7)           97.17  0.024545   -0.76     96.41   
    50. A(O   4,Mn  8,Co  7)          132.66  0.011536   -2.61    130.05   
    51. A(O   0,Mn  8,Co  7)           63.41  0.015968    0.13     63.54   
    52. A(O   1,Mn  8,O   2)           95.62  0.025954   -0.96     94.65   
    53. D(O   6,Co  7,O   3,Mn  8)    177.54  0.002605    0.37    177.91   
    54. D(O   0,Co  7,O   3,Mn  8)     84.49  0.019990   -1.17     83.33   
    55. D(O   1,Co  7,O   2,Mn  8)    -55.24 -0.022308   -0.02    -55.26   
    56. D(O   6,Co  7,O   1,Mn  8)    178.60  0.001534   -0.01    178.59   
    57. D(O   0,Co  7,O   2,Mn  8)     36.87  0.028060   -0.54     36.33   
    58. D(O   3,Co  7,O   2,Mn  8)     49.99 -0.003239    0.88     50.86   
    59. D(O   3,Co  7,O   1,Mn  8)     -5.33  0.002868    0.36     -4.97   
    60. D(O   0,Co  7,O   1,Mn  8)    -61.34 -0.028218    1.47    -59.88   
    61. D(O   1,Co  7,O   3,Mn  8)      6.84 -0.003248   -0.53      6.32   
    62. D(O   2,Co  7,O   0,Mn  8)    -36.77 -0.026436    0.34    -36.43   
    63. D(O   3,Co  7,O   0,Mn  8)    -50.22  0.007434   -1.19    -51.41   
    64. D(O   1,Co  7,O   0,Mn  8)     60.36  0.019318   -0.46     59.90   
    65. D(O   2,Co  7,O   1,Mn  8)     55.84  0.026346   -0.38     55.46   
    66. D(O   6,Co  7,O   2,Mn  8)   -158.80 -0.008006    0.63   -158.17   
    67. D(O   6,Co  7,O   0,Mn  8)    158.72  0.008339   -0.68    158.05   
    68. D(O   2,Co  7,O   3,Mn  8)    -81.74 -0.023219    0.70    -81.04   
    69. D(O   4,Mn  8,O   2,Co  7)   -132.13 -0.047385    5.42   -126.71   
    70. D(O   4,Mn  8,Co  7,O   3)     77.11 -0.003126    0.77     77.87   
    71. D(O   1,Mn  8,O   2,Co  7)     53.28  0.022893   -0.36     52.92   
    72. D(O   5,Mn  8,O   1,Co  7)   -138.20 -0.018503    1.51   -136.69   
    73. D(O   3,Mn  8,Co  7,O   0)    -69.93 -0.007101    0.36    -69.57   
    74. D(O   2,Mn  8,Co  7,O   6)    109.49  0.002158   -0.29    109.20   
    75. D(O   3,Mn  8,O   1,Co  7)     18.76  0.020933   -2.35     16.40   
    76. D(O   4,Mn  8,O   1,Co  7)    127.20  0.017697   -2.82    124.37   
    77. D(O   3,Mn  8,Co  7,O   6)   -176.86 -0.002032   -0.53   -177.39   
    78. D(O   0,Mn  8,O   2,Co  7)    -36.44 -0.015110   -0.36    -36.80   
    79. D(O   4,Mn  8,Co  7,O   6)    -99.76 -0.005158    0.24    -99.52   
    80. D(O   3,Mn  8,O   2,Co  7)   -103.88 -0.019586    0.43   -103.44   
    81. D(O   5,Mn  8,Co  7,O   2)    -22.25  0.003018   -0.07    -22.31   
    82. D(O   5,Mn  8,O   2,Co  7)    166.47  0.004793   -0.49    165.97   
    83. D(O   2,Mn  8,O   1,Co  7)    -55.65 -0.021395    0.40    -55.25   
    84. D(O   1,Mn  8,Co  7,O   6)     -4.22  0.004089    0.05     -4.17   
    85. D(O   0,Mn  8,O   1,Co  7)     60.85  0.013039   -0.30     60.54   
    86. D(O   5,Mn  8,O   0,Co  7)    161.37  0.020689   -1.90    159.47   
    87. D(O   1,Mn  8,Co  7,O   0)    102.71 -0.000980    0.93    103.64   
    88. D(O   0,Mn  8,Co  7,O   6)   -106.93  0.005069   -0.88   -107.82   
    89. D(O   4,Mn  8,O   0,Co  7)   -174.37 -0.008854    1.21   -173.16   
    90. D(O   0,Mn  8,Co  7,O   3)     69.93  0.007101   -0.36     69.57   
    91. D(O   0,Mn  8,Co  7,O   2)    143.58  0.002911   -0.59    142.98   
    92. D(O   3,Mn  8,O   0,Co  7)    105.82  0.014408   -0.53    105.29   
    93. D(O   1,Mn  8,Co  7,O   2)   -113.71  0.001931    0.34   -113.37   
    94. D(O   1,Mn  8,Co  7,O   3)    172.64  0.006121    0.58    173.22   
    95. D(O   0,Mn  8,Co  7,O   1)   -102.71  0.000980   -0.93   -103.64   
    96. D(O   2,Mn  8,Co  7,O   0)   -143.58 -0.002911    0.59   -142.98   
    97. D(O   2,Mn  8,Co  7,O   1)    113.71 -0.001931   -0.34    113.37   
    98. D(O   2,Mn  8,Co  7,O   3)    -73.65  0.004190    0.24    -73.41   
    99. D(O   5,Mn  8,O   3,Co  7)    142.58  0.009806   -1.35    141.23   
   100. D(O   2,Mn  8,O   0,Co  7)     36.59  0.017589    0.07     36.66   
   101. D(O   3,Mn  8,Co  7,O   1)   -172.64 -0.006121   -0.58   -173.22   
   102. D(O   3,Mn  8,Co  7,O   2)     73.65 -0.004190   -0.24     73.41   
   103. D(O   4,Mn  8,O   3,Co  7)   -132.28 -0.007391    2.58   -129.70   
   104. D(O   4,Mn  8,Co  7,O   0)      7.18 -0.010227    1.12      8.30   
   105. D(O   4,Mn  8,Co  7,O   1)    -95.53 -0.009247    0.19    -95.34   
   106. D(O   4,Mn  8,Co  7,O   2)    150.75 -0.007316    0.53    151.28   
   107. D(O   2,Mn  8,O   3,Co  7)     61.41  0.017374   -0.58     60.83   
   108. D(O   1,Mn  8,O   0,Co  7)    -58.31 -0.020986    0.90    -57.41   
   109. D(O   5,Mn  8,Co  7,O   0)   -165.82  0.000107    0.52   -165.30   
   110. D(O   5,Mn  8,Co  7,O   1)     91.47  0.001087   -0.41     91.06   
   111. D(O   1,Mn  8,O   3,Co  7)    -16.40 -0.023078    2.16    -14.24   
   112. D(O   5,Mn  8,Co  7,O   3)    -95.89  0.007208    0.17    -95.73   
   113. D(O   5,Mn  8,Co  7,O   6)     87.24  0.005176   -0.36     86.89   
   114. D(O   0,Mn  8,O   3,Co  7)    -60.13 -0.012184   -0.21    -60.34   
    ----------------------------------------------------------------------------

         *************************************************************
         *                GEOMETRY OPTIMIZATION CYCLE   2            *
         *************************************************************
---------------------------------
CARTESIAN COORDINATES (ANGSTROEM)
---------------------------------
  O     -0.445333    0.356486    1.783022
  O      1.536582    1.308085    0.338993
  O      1.292858   -1.371160   -0.404122
  O     -1.065162   -1.346579    0.269581
  O     -1.595909    0.995533    0.096520
  O     -0.177513   -0.069878   -1.961863
  O      2.796580   -0.171403    2.302511
  Co     1.303064   -0.269113    1.191519
  Mn     0.140130    0.146787   -0.051590

----------------------------
CARTESIAN COORDINATES (A.U.)
----------------------------
  NO LB      ZA    FRAG     MASS         X           Y           Z
   0 O     8.0000    0    15.999   -0.841558    0.673661    3.369423
   1 O     8.0000    0    15.999    2.903720    2.471923    0.640603
   2 O     8.0000    0    15.999    2.443148   -2.591117   -0.763679
   3 O     8.0000    0    15.999   -2.012864   -2.544665    0.509435
   4 O     8.0000    0    15.999   -3.015831    1.881285    0.182396
   5 O     8.0000    0    15.999   -0.335451   -0.132050   -3.707384
   6 O     8.0000    0    15.999    5.284771   -0.323905    4.351114
   7 Co   27.0000    0    58.930    2.462434   -0.508549    2.251645
   8 Mn   25.0000    0    54.940    0.264807    0.277388   -0.097491

--------------------------------
INTERNAL COORDINATES (ANGSTROEM)
--------------------------------
 O      0   0   0     0.000000000000     0.00000000     0.00000000
 O      1   0   0     2.630351670757     0.00000000     0.00000000
 O      2   1   0     2.791052788935    74.51934393     0.00000000
 O      1   2   3     2.361169114851    96.13391770   333.48899477
 O      1   2   3     2.139274149898    82.20562002   270.37845162
 O      3   2   1     2.506369485568    73.63913276    90.73216605
 O      2   1   3     2.762586574169    76.09665449   283.65792784
 Co     2   1   3     1.808005994755    47.79591942   319.62186192
 Mn     8   2   1     1.752343777182    62.88182914    59.87156856

---------------------------
INTERNAL COORDINATES (A.U.)
---------------------------
 O      0   0   0     0.000000000000     0.00000000     0.00000000
 O      1   0   0     4.970644293633     0.00000000     0.00000000
 O      2   1   0     5.274325396405    74.51934393     0.00000000
 O      1   2   3     4.461962982941    96.13391770   333.48899477
 O      1   2   3     4.042642268685    82.20562002   270.37845162
 O      3   2   1     4.736351918142    73.63913276    90.73216605
 O      2   1   3     5.220532046428    76.09665449   283.65792784
 Co     2   1   3     3.416636178575    47.79591942   319.62186192
 Mn     8   2   1     3.311449831356    62.88182914    59.87156856



           ************************************************************
           *        Program running with 3 parallel MPI-processes     *
           *              working on a common directory               *
           ************************************************************


           ************************************************************
           *        Program running with 3 parallel MPI-processes     *
           *              working on a common directory               *
           ************************************************************

Diagonalization of the overlap matrix:
Smallest eigenvalue                        ... 1.042e-03
Time for diagonalization                   ...    0.004 sec
Threshold for overlap eigenvalues          ... 1.000e-08
Number of eigenvalues below threshold      ... 0
Time for construction of square roots      ...    0.003 sec
Total time needed                          ...    0.007 sec

--------------
SCF ITERATIONS
--------------
ITER       Energy         Delta-E        Max-DP      RMS-DP      [F,P]     Damp
               ***  Starting incremental Fock matrix formation  ***
  0  -3053.4137656917   0.000000000000 0.00418040  0.00018863  0.0111998 0.7000
  1  -3053.4142514515  -0.000485759765 0.00384716  0.00018122  0.0082881 0.7000
                               ***Turning on DIIS***
  2  -3053.4146696165  -0.000418164991 0.00999279  0.00050400  0.0076239 0.0000
  3  -3053.4284296745  -0.013760058051 0.00415240  0.00023068  0.0057461 0.0000
  4  -3053.4349985238  -0.006568849279 0.00274914  0.00014682  0.0047519 0.0000
  5  -3053.4160924859   0.018906037854 0.00362504  0.00015202  0.0041289 0.0000
  6  -3053.4237676937  -0.007675207778 0.00355824  0.00013619  0.0034581 0.0000
  7  -3053.4123654861   0.011402207653 0.00448952  0.00015650  0.0030096 0.0000
  8  -3053.4279237993  -0.015558313260 0.00558953  0.00017432  0.0029290 0.0000
  9  -3053.4189502621   0.008973537266 0.00609616  0.00017780  0.0028055 0.0000
 10  -3053.4199392321  -0.000988969985 0.00603881  0.00016475  0.0026515 0.0000
 11  -3053.4203340346  -0.000394802544 0.00556051  0.00014470  0.0025261 0.0000
 12  -3053.4159707509   0.004363283646 0.00578089  0.00014540  0.0024361 0.0000
 13  -3053.4163930648  -0.000422313872 0.00529517  0.00012918  0.0023343 0.0000
 14  -3053.4177061728  -0.001313107992 0.00564063  0.00013472  0.0022673 0.0000
 15  -3053.4142414473   0.003464725468 0.00557641  0.00013127  0.0021717 0.0000
 16  -3053.4165449043  -0.002303456960 0.00582103  0.00013562  0.0020868 0.0000
 17  -3053.4142395369   0.002305367356 0.00608191  0.00014153  0.0019878 0.0000
 18  -3053.4158218354  -0.001582298403 0.00617281  0.00014387  0.0018824 0.0000
 19  -3053.4140572106   0.001764624724 0.00688153  0.00016132  0.0017793 0.0000
               *** Restarting incremental Fock matrix formation ***
                                   *** Resetting DIIS ***
 20  -3053.4180887766  -0.004031565929 0.00087858  0.00003068  0.0016583 0.0000
 21  -3053.4178024695   0.000286307090 0.00113904  0.00003067  0.0018499 0.0000
 22  -3053.4173806295   0.000421840000 0.00142650  0.00003572  0.0019352 0.0000
 23  -3053.4178140686  -0.000433439138 0.00174674  0.00004202  0.0019699 0.0000
 24  -3053.4163489742   0.001465094409 0.00255310  0.00005937  0.0019654 0.0000
 25  -3053.4170978147  -0.000748840553 0.00347869  0.00008066  0.0019267 0.0000
 26  -3053.4169179763   0.000179838482 0.00371939  0.00008571  0.0018473 0.0000
 27  -3053.4155979841   0.001319992162 0.00407957  0.00009404  0.0017692 0.0000
 28  -3053.4172004011  -0.001602417026 0.00376846  0.00008739  0.0016867 0.0000
 29  -3053.4157167489   0.001483652276 0.00471808  0.00010842  0.0016393 0.0000
 30  -3053.4169111535  -0.001194404623 0.00362755  0.00008534  0.0015513 0.0000
 31  -3053.4145548031   0.002356350400 0.00619673  0.00014193  0.0015393 0.0000
 32  -3053.4180660381  -0.003511234996 0.00133844  0.00003764  0.0014335 0.0000
 33  -3053.4115962766   0.006469761502 0.00875589  0.00019902  0.0015320 0.0000
 34  -3053.4161055313  -0.004509254745 0.00049515  0.00001761  0.0013823 0.0000
 35  -3053.4122914641   0.003814067253 0.00953075  0.00021836  0.0015114 0.0000
 36  -3053.4151133165  -0.002821852458 0.00159964  0.00004773  0.0013251 0.0000
 37  -3053.4118168246   0.003296491924 0.01013623  0.00023763  0.0013585 0.0000
 38  -3053.4176703866  -0.005853561972 0.00093615  0.00002500  0.0013095 0.0000
 39  -3053.4157591643   0.001911222261 0.00426684  0.00010168  0.0013681 0.0000
               *** Restarting incremental Fock matrix formation ***
                                   *** Resetting DIIS ***
 40  -3053.4187002072  -0.002941042910 0.00060394  0.00001861  0.0012074 0.0000
 41  -3053.4186444738   0.000055733444 0.00070123  0.00001916  0.0013145 0.0000
 42  -3053.4185382927   0.000106181109 0.00079541  0.00002024  0.0013594 0.0000
 43  -3053.4186488585  -0.000110565883 0.00081489  0.00002019  0.0013769 0.0000
 44  -3053.4185576450   0.000091213540 0.00087705  0.00002140  0.0013814 0.0000
 45  -3053.4185785077  -0.000020862736 0.00094271  0.00002275  0.0013793 0.0000
 46  -3053.4185778363   0.000000671424 0.00101118  0.00002420  0.0013727 0.0000
 47  -3053.4184665200   0.000111316326 0.00108865  0.00002591  0.0013632 0.0000
 48  -3053.4185677180  -0.000101198026 0.00119444  0.00002825  0.0013521 0.0000
 49  -3053.4183453587   0.000222359364 0.00131665  0.00003101  0.0013385 0.0000
 50  -3053.4184853984  -0.000140039787 0.00143962  0.00003376  0.0013228 0.0000
 51  -3053.4182398555   0.000245542934 0.00157232  0.00003676  0.0013056 0.0000
 52  -3053.4183807329  -0.000140877371 0.00167246  0.00003900  0.0012872 0.0000
 53  -3053.4181583127   0.000222420156 0.00179249  0.00004169  0.0012692 0.0000
 54  -3053.4182704125  -0.000112099771 0.00187611  0.00004355  0.0012506 0.0000
 55  -3053.4180792931   0.000191119372 0.00198583  0.00004598  0.0012331 0.0000
 56  -3053.4181689569  -0.000089663740 0.00206414  0.00004770  0.0012152 0.0000
 57  -3053.4179920679   0.000176888971 0.00215554  0.00004969  0.0011983 0.0000
 58  -3053.4180733808  -0.000081312921 0.00225551  0.00005187  0.0011814 0.0000
 59  -3053.4178984472   0.000174933582 0.00230897  0.00005301  0.0011640 0.0000
               *** Restarting incremental Fock matrix formation ***
                                   *** Resetting DIIS ***
 60  -3053.4189160066  -0.001017559330 0.00061347  0.00001624  0.0011483 0.0000
 61  -3053.4188307973   0.000085209310 0.00061454  0.00001509  0.0012086 0.0000
 62  -3053.4191332729  -0.000302475620 0.00065818  0.00001558  0.0012335 0.0000
 63  -3053.4187671278   0.000366145047 0.00060444  0.00001405  0.0012439 0.0000
 64  -3053.4190805991  -0.000313471301 0.00066073  0.00001519  0.0012487 0.0000
 65  -3053.4188176123   0.000262986776 0.00072849  0.00001658  0.0012490 0.0000
 66  -3053.4189019210  -0.000084308652 0.00080852  0.00001830  0.0012456 0.0000
 67  -3053.4188026986   0.000099222449 0.00089555  0.00002020  0.0012394 0.0000
 68  -3053.4187600165   0.000042682098 0.00098518  0.00002218  0.0012313 0.0000
 69  -3053.4187723157  -0.000012299201 0.00106053  0.00002386  0.0012216 0.0000
 70  -3053.4186697109   0.000102604780 0.00111100  0.00002501  0.0012116 0.0000
 71  -3053.4187551104  -0.000085399523 0.00111493  0.00002513  0.0012023 0.0000
 72  -3053.4187286262   0.000026484222 0.00111004  0.00002506  0.0011954 0.0000
 73  -3053.4186827632   0.000045862931 0.00109424  0.00002470  0.0011899 0.0000
 74  -3053.4188085218  -0.000125758559 0.00114270  0.00002574  0.0011858 0.0000
 75  -3053.4185830702   0.000225451560 0.00118882  0.00002672  0.0011796 0.0000
 76  -3053.4187481187  -0.000165048441 0.00128799  0.00002887  0.0011727 0.0000
 77  -3053.4185163463   0.000231772354 0.00136631  0.00003058  0.0011629 0.0000
 78  -3053.4186304875  -0.000114141200 0.00146789  0.00003282  0.0011524 0.0000
 79  -3053.4184819543   0.000148533194 0.00152440  0.00003408  0.0011402 0.0000
               *** Restarting incremental Fock matrix formation ***
                                   *** Resetting DIIS ***
 80  -3053.4190567255  -0.000574771136 0.00063506  0.00001515  0.0011291 0.0000
 81  -3053.4189893399   0.000067385612 0.00061813  0.00001425  0.0011568 0.0000
 82  -3053.4191810938  -0.000191753964 0.00065268  0.00001477  0.0011681 0.0000
 83  -3053.4189692927   0.000211801119 0.00061569  0.00001382  0.0011717 0.0000
 84  -3053.4191230124  -0.000153719650 0.00072772  0.00001617  0.0011733 0.0000
 85  -3053.4189242021   0.000198810269 0.00081754  0.00001806  0.0011696 0.0000
 86  -3053.4189665146  -0.000042312553 0.00090693  0.00002000  0.0011631 0.0000
 87  -3053.4188924419   0.000074072757 0.00099082  0.00002183  0.0011548 0.0000
 88  -3053.4188488319   0.000043610006 0.00106796  0.00002354  0.0011456 0.0000
 89  -3053.4188629469  -0.000014115068 0.00110388  0.00002437  0.0011359 0.0000
 90  -3053.4188315318   0.000031415120 0.00113372  0.00002507  0.0011278 0.0000
 91  -3053.4188067390   0.000024792810 0.00113400  0.00002510  0.0011205 0.0000
 92  -3053.4188748593  -0.000068120330 0.00118426  0.00002620  0.0011150 0.0000
 93  -3053.4187067360   0.000168123344 0.00122163  0.00002700  0.0011083 0.0000
 94  -3053.4188332653  -0.000126529327 0.00132658  0.00002927  0.0011016 0.0000
 95  -3053.4186132114   0.000220053942 0.00140253  0.00003092  0.0010920 0.0000
 96  -3053.4187191273  -0.000105915952 0.00152839  0.00003366  0.0010821 0.0000
 97  -3053.4185454989   0.000173628473 0.00159331  0.00003511  0.0010697 0.0000
 98  -3053.4186010286  -0.000055529710 0.00171565  0.00003779  0.0010583 0.0000
 99  -3053.4184926939   0.000108334672 0.00175143  0.00003863  0.0010451 0.0000
               *** Restarting incremental Fock matrix formation ***
                                   *** Resetting DIIS ***
100  -3053.4192036059  -0.000710912015 0.00060613  0.00001463  0.0010344 0.0000
101  -3053.4191202930   0.000083312902 0.00059270  0.00001359  0.0010706 0.0000
102  -3053.4193589827  -0.000238689726 0.00063002  0.00001409  0.0010857 0.0000
103  -3053.4190979433   0.000261039477 0.00058733  0.00001297  0.0010914 0.0000
104  -3053.4192957132  -0.000197769913 0.00068123  0.00001489  0.0010942 0.0000
105  -3053.4190773570   0.000218356139 0.00077826  0.00001688  0.0010923 0.0000
106  -3053.4191127212  -0.000035364124 0.00088175  0.00001908  0.0010870 0.0000
107  -3053.4190355822   0.000077138968 0.00098776  0.00002134  0.0010792 0.0000
108  -3053.4189565205   0.000079061686 0.00109096  0.00002359  0.0010697 0.0000
109  -3053.4190007190  -0.000044198478 0.00114750  0.00002485  0.0010592 0.0000
110  -3053.4189122747   0.000088444239 0.00118274  0.00002569  0.0010499 0.0000
111  -3053.4189415080  -0.000029233207 0.00117408  0.00002555  0.0010420 0.0000
112  -3053.4189743347  -0.000032826722 0.00123742  0.00002693  0.0010365 0.0000
113  -3053.4187946950   0.000179639705 0.00129222  0.00002810  0.0010295 0.0000
114  -3053.4189087991  -0.000114104120 0.00145225  0.00003152  0.0010221 0.0000
115  -3053.4186434557   0.000265343382 0.00156735  0.00003401  0.0010104 0.0000
116  -3053.4187476027  -0.000104147010 0.00241860  0.00005425  0.0009979 0.0000
117  -3053.4186027027   0.000144900041 0.00127359  0.00002708  0.0010502 0.0000
118  -3053.4184547706   0.000147932031 0.00233518  0.00004961  0.0010206 0.0000
119  -3053.4182814784   0.000173292246 0.00321919  0.00007118  0.0009712 0.0000
               *** Restarting incremental Fock matrix formation ***
                                   *** Resetting DIIS ***
120  -3053.4193608949  -0.001079416546 0.00062760  0.00001352  0.0010283 0.0000
121  -3053.4188862267   0.000474668296 0.00054118  0.00001167  0.0010226 0.0000
122  -3053.4196303644  -0.000744137753 0.00065053  0.00001384  0.0010225 0.0000
123  -3053.4192126054   0.000417759022 0.00068087  0.00001448  0.0010173 0.0000
124  -3053.4193343731  -0.000121767749 0.00097918  0.00002065  0.0010126 0.0000

               *****************************************************
               *                      ERROR                        *
               *        SCF NOT CONVERGED AFTER 125 CYCLES         *
               *****************************************************

  Last Energy change         ...   -1.2177e-04  Tolerance :   1.0000e-08
  Last MAX-Density change    ...    9.7918e-04  Tolerance :   1.0000e-07
             **** DENSITY FILE WAS UPDATED (input.scfp) ****
             **** ENERGY FILE WAS UPDATED (input.en.tmp) ****

     --------------------------------------------------------------------
                                      WARNING
     The wavefunction IS NOT YET CONVERGED! It shows however signs of
     convergence. Therefore the wavefunction will be stored and can be
     used as input for another calculation. 
     DO NOT USE THIS WAVEFUNCTION  FOR ANYHTING ELSE. It is NOT RELIABLE
     --------------------------------------------------------------------

Total SCF time: 0 days 0 hours 5 min 11 sec 

-------------------------   --------------------
FINAL SINGLE POINT ENERGY     -3053.419334373131   (Wavefunction not fully converged!)
-------------------------   --------------------



           ************************************************************
           *        Program running with 3 parallel MPI-processes     *
           *              working on a common directory               *
           ************************************************************
------------------------------------------------------------------------------
                         ORCA SCF GRADIENT CALCULATION
------------------------------------------------------------------------------

Gradient of the Hartree-Fock SCF energy:
Hartree-Fock type                ... RHF
Number of operators              ...    1
Number of atoms                  ...    9
Basis set dimensions             ...  117
Integral neglect threshold       ... 2.5e-11
Integral primitive cutoff        ... 2.5e-12

Nuclear repulsion gradient       ... done
One Electron Gradient            ... done
Pre-screening matrix             ... done
Starting the two electron gradient:
Two electron gradient done

------------------
CARTESIAN GRADIENT
------------------

   1   O   :   -0.011308417    0.018198077    0.063904219
   2   O   :   -0.005023433    0.036288034   -0.012878380
   3   O   :    0.031846550   -0.063041940   -0.048220221
   4   O   :    0.008256583    0.028702852   -0.006234757
   5   O   :   -0.001226438   -0.013536691   -0.042530285
   6   O   :   -0.017126422    0.011156504    0.029982387
   7   O   :   -0.064530866   -0.005956115   -0.033730356
   8   Co  :   -0.177123830    0.076027331   -0.208086336
   9   Mn  :    0.236236273   -0.087838052    0.257793730

Difference to translation invariance:
           :    0.0000000002    0.0000000000    0.0000000001

Norm of the cartesian gradient     ...    0.4830907392
RMS gradient                       ...    0.0929708561
MAX gradient                       ...    0.2577937296

-------
TIMINGS
-------

Total SCF gradient time            ...       13.897 sec

One electron gradient       ....       0.055 sec  (  0.4%)
Prescreening matrices       ....       0.277 sec  (  2.0%)
Two electron gradient       ....      13.361 sec  ( 96.1%)
------------------------------------------------------------------------------
                         ORCA GEOMETRY RELAXATION STEP
------------------------------------------------------------------------------

Reading the OPT-File                    .... done
Getting information on internals        .... done
Copying old internal coords+grads       .... done
Making the new internal coordinates     .... (new redundants).... done
Validating the new internal coordinates .... (new redundants).... done
Calculating the B-matrix                .... done
Calculating the G,G- and P matrices     .... done
Transforming gradient to internals      .... done
Projecting the internal gradient        .... done
Number of atoms                         ....   9
Number of internal coordinates          .... 114
Current Energy                          .... -3053.419334373 Eh
Current gradient norm                   ....     0.483090739 Eh/bohr
Maximum allowed component of the step   ....  0.300
Current trust radius                    ....  0.300
Updating the Hessian (BFGS)             .... done
Forming the augmented Hessian           .... done
Diagonalizing the augmented Hessian     .... done
Last element of RFO vector              ....  0.764281939
Lowest eigenvalues of augmented Hessian:
 -0.134057754  0.098865758  0.149592270  0.174240348  0.185959691
Length of the computed step             ....  0.843775337
Warning: the length of the step is outside the trust region - taking restricted step instead
The input lambda is                     ....    -0.134058
   iter:   1  x=   -0.209399  g=    8.255201 f(x)=     0.621957
   iter:   2  x=   -0.302670  g=    2.755256 f(x)=     0.256985
   iter:   3  x=   -0.393028  g=    1.059495 f(x)=     0.095734
   iter:   4  x=   -0.445701  g=    0.527267 f(x)=     0.027773
   iter:   5  x=   -0.457208  g=    0.375021 f(x)=     0.004315
   iter:   6  x=   -0.457628  g=    0.349882 f(x)=     0.000147
   iter:   7  x=   -0.457628  g=    0.349009 f(x)=     0.000000
   iter:   8  x=   -0.457628  g=    0.349008 f(x)=     0.000000
   iter:   9  x=   -0.457628  g=    0.349008 f(x)=     0.000000
The output lambda is                    ....    -0.457628 (9 iterations)
The final length of the internal step   ....  0.300000000
Converting the step to cartesian space:
 Initial RMS(Int)=    0.0280975743
Transforming coordinates:
 Iter   0:  RMS(Cart)=    0.0526741715 RMS(Int)=    0.0282593555
 Iter   1:  RMS(Cart)=    0.0009510335 RMS(Int)=    0.0006072245
 Iter   2:  RMS(Cart)=    0.0000335496 RMS(Int)=    0.0000187743
 Iter   3:  RMS(Cart)=    0.0000012749 RMS(Int)=    0.0000007583
 Iter   4:  RMS(Cart)=    0.0000000507 RMS(Int)=    0.0000000323
done
Storing new coordinates                 .... done

                                .--------------------.
          ----------------------|Geometry convergence|-------------------------
          Item                value                   Tolerance       Converged
          ---------------------------------------------------------------------
          Energy change      -0.0422411691            0.0000050000      NO
          RMS gradient        0.0244121841            0.0001000000      NO
          MAX gradient        0.1451891988            0.0003000000      NO
          RMS step            0.0280975743            0.0020000000      NO
          MAX step            0.1092810549            0.0040000000      NO
          ........................................................
          Max(Bonds)      0.0578      Max(Angles)    4.08
          Max(Dihed)        5.68      Max(Improp)    0.00
          ---------------------------------------------------------------------

The optimization has not yet converged - more geometry cycles are needed


    ---------------------------------------------------------------------------
                         Redundant Internal Coordinates
                            (Angstroem and degrees)

        Definition                    Value    dE/dq     Step     New-Value
    ----------------------------------------------------------------------------
     1. B(Co  7,O   6)                1.8640 -0.072102  0.0578    1.9218   
     2. B(Co  7,O   3)                2.7603 -0.049601  0.0176    2.7779   
     3. B(Co  7,O   0)                1.9489 -0.011564 -0.0113    1.9376   
     4. B(Co  7,O   2)                1.9392  0.007332 -0.0372    1.9021   
     5. B(Co  7,O   1)                1.8080 -0.004657 -0.0187    1.7893   
     6. B(Mn  8,O   1)                1.8578 -0.021400 -0.0008    1.8570   
     7. B(Mn  8,Co  7)                1.7523 -0.145189  0.0238    1.7761   
     8. B(Mn  8,O   0)                1.9371  0.019980 -0.0453    1.8919   
     9. B(Mn  8,O   5)                1.9486 -0.027850  0.0289    1.9775   
    10. B(Mn  8,O   4)                1.9381 -0.008056  0.0093    1.9474   
    11. B(Mn  8,O   3)                1.9458  0.004905  0.0215    1.9672   
    12. B(Mn  8,O   2)                1.9384  0.021203 -0.0453    1.8930   
    13. A(Co  7,O   0,Mn  8)           53.61 -0.045410    1.61     55.21   
    14. A(Co  7,O   1,Mn  8)           57.09 -0.043529    1.16     58.25   
    15. A(Co  7,O   2,Mn  8)           53.73 -0.048367    1.99     55.72   
    16. A(Co  7,O   3,Mn  8)           39.11 -0.029897    0.41     39.52   
    17. A(O   2,Co  7,O   3)           59.92  0.017319   -0.79     59.13   
    18. A(O   6,Co  7,Mn  8)          160.41  0.002449   -0.61    159.80   
    19. A(O   0,Co  7,Mn  8)           62.85  0.030877   -1.80     61.05   
    20. A(O   2,Co  7,O   6)          121.63 -0.025785    1.17    122.80   
    21. A(O   3,Co  7,Mn  8)           44.47  0.008252    0.35     44.81   
    22. A(O   1,Co  7,Mn  8)           62.88  0.018711   -0.08     62.80   
    23. A(O   1,Co  7,O   2)           96.23  0.024992   -0.79     95.44   
    24. A(O   1,Co  7,O   6)           97.58 -0.016337   -0.52     97.06   
    25. A(O   0,Co  7,O   2)          115.30  0.048607   -2.63    112.68   
    26. A(O   0,Co  7,O   6)          121.41 -0.030213    1.94    123.35   
    27. A(O   2,Co  7,Mn  8)           63.11  0.027895   -1.23     61.87   
    28. A(O   0,Co  7,O   3)           57.11  0.023491   -1.29     55.82   
    29. A(O   3,Co  7,O   6)          155.09 -0.010666    0.27    155.35   
[...]
 30  -3053.8230526470  -0.000021165584 0.00016048  0.00000347  0.0000154 0.0000
 31  -3053.8230425435   0.000010103545 0.00009201  0.00000198  0.0000129 0.0000
 32  -3053.8230567593  -0.000014215822 0.00008755  0.00000196  0.0000111 0.0000
 33  -3053.8230367402   0.000020019065 0.00008247  0.00000193  0.0000108 0.0000
 34  -3053.8230218284   0.000014911803 0.00008436  0.00000197  0.0000101 0.0000
 35  -3053.8230662385  -0.000044410017 0.00007455  0.00000169  0.0000092 0.0000
 36  -3053.8230441762   0.000022062228 0.00005108  0.00000112  0.0000080 0.0000
 37  -3053.8230578808  -0.000013704597 0.00004541  0.00000096  0.0000068 0.0000
 38  -3053.8230563501   0.000001530711 0.00003941  0.00000082  0.0000054 0.0000
 39  -3053.8230571250  -0.000000774903 0.00002618  0.00000055  0.0000037 0.0000
               *** Restarting incremental Fock matrix formation ***
                                   *** Resetting DIIS ***
 40  -3053.8230651768  -0.000008051831 0.00000213  0.00000006  0.0000028 0.0000
 41  -3053.8230695040  -0.000004327124 0.00000109  0.00000003  0.0000028 0.0000
 42  -3053.8230636573   0.000005846687 0.00000445  0.00000013  0.0000028 0.0000
 43  -3053.8230628570   0.000000800320 0.00001027  0.00000030  0.0000028 0.0000
 44  -3053.8230646058  -0.000001748822 0.00000611  0.00000016  0.0000028 0.0000
 45  -3053.8230674654  -0.000002859646 0.00000192  0.00000005  0.0000027 0.0000
 46  -3053.8230652046   0.000002260854 0.00000373  0.00000009  0.0000027 0.0000
 47  -3053.8230651448   0.000000059747 0.00000479  0.00000011  0.0000027 0.0000
 48  -3053.8230654931  -0.000000348231 0.00000695  0.00000016  0.0000027 0.0000
 49  -3053.8230652347   0.000000258316 0.00000765  0.00000017  0.0000027 0.0000
 50  -3053.8230647756   0.000000459190 0.00000713  0.00000016  0.0000026 0.0000
 51  -3053.8230651873  -0.000000411790 0.00000877  0.00000019  0.0000026 0.0000
 52  -3053.8230646834   0.000000503968 0.00000832  0.00000018  0.0000025 0.0000
 53  -3053.8230649491  -0.000000265694 0.00000900  0.00000019  0.0000025 0.0000
 54  -3053.8230645030   0.000000446123 0.00000659  0.00000014  0.0000025 0.0000
 55  -3053.8230654059  -0.000000902941 0.00000796  0.00000017  0.0000024 0.0000
 56  -3053.8230640455   0.000001360420 0.00000903  0.00000019  0.0000024 0.0000
 57  -3053.8230651671  -0.000001121587 0.00001424  0.00000030  0.0000024 0.0000
 58  -3053.8230637745   0.000001392542 0.00001954  0.00000041  0.0000023 0.0000
 59  -3053.8230648930  -0.000001118450 0.00002744  0.00000058  0.0000022 0.0000
               *** Restarting incremental Fock matrix formation ***
                                   *** Resetting DIIS ***
 60  -3053.8230651787  -0.000000285684 0.00000132  0.00000003  0.0000021 0.0000
 61  -3053.8230657090  -0.000000530346 0.00000052  0.00000001  0.0000021 0.0000
 62  -3053.8230652426   0.000000466409 0.00000046  0.00000001  0.0000021 0.0000
 63  -3053.8230651316   0.000000111027 0.00000058  0.00000001  0.0000021 0.0000
 64  -3053.8230650526   0.000000078971 0.00000082  0.00000002  0.0000021 0.0000
 65  -3053.8230650345   0.000000018092 0.00000042  0.00000001  0.0000021 0.0000
 66  -3053.8230651240  -0.000000089473 0.00000042  0.00000001  0.0000021 0.0000
 67  -3053.8230651815  -0.000000057533 0.00000054  0.00000001  0.0000021 0.0000
                 **** Energy Check signals convergence ****

               *****************************************************
               *                     SUCCESS                       *
               *           SCF CONVERGED AFTER  68 CYCLES          *
               *****************************************************

Total Energy       :        -3053.82306517 Eh          -83098.75026 eV
  Last Energy change         ...    7.6261e-09  Tolerance :   1.0000e-08
  Last MAX-Density change    ...    4.4444e-07  Tolerance :   1.0000e-07
             **** THE GBW FILE WAS UPDATED (input.gbw) ****
             **** DENSITY FILE WAS UPDATED (input.scfp) ****
             **** ENERGY FILE WAS UPDATED (input.en.tmp) ****
             **** THE GBW FILE WAS UPDATED (input.gbw) ****
             **** DENSITY FILE WAS UPDATED (input.scfp) ****
Total SCF time: 0 days 0 hours 2 min 22 sec 

-------------------------   --------------------
FINAL SINGLE POINT ENERGY     -3053.823065173880
-------------------------   --------------------



           ************************************************************
           *        Program running with 3 parallel MPI-processes     *
           *              working on a common directory               *
           ************************************************************
------------------------------------------------------------------------------
                         ORCA SCF GRADIENT CALCULATION
------------------------------------------------------------------------------

Gradient of the Hartree-Fock SCF energy:
Hartree-Fock type                ... RHF
Number of operators              ...    1
Number of atoms                  ...    9
Basis set dimensions             ...  117
Integral neglect threshold       ... 2.5e-11
Integral primitive cutoff        ... 2.5e-12

Nuclear repulsion gradient       ... done
One Electron Gradient            ... done
Pre-screening matrix             ... done
Starting the two electron gradient:
Two electron gradient done

------------------
CARTESIAN GRADIENT
------------------

   1   O   :    0.031334870    0.011057014   -0.044787580
   2   O   :   -0.032164034   -0.030108113   -0.010902154
   3   O   :   -0.020001582    0.028012046   -0.008631140
   4   O   :    0.016131702    0.045574414   -0.030784997
   5   O   :    0.001197574   -0.012205844   -0.013790333
   6   O   :   -0.006187470   -0.002883699    0.000952810
   7   O   :    0.002154107   -0.000664292    0.002237685
   8   Co  :    0.006774283    0.012007196    0.012140917
   9   Mn  :    0.000760551   -0.050788723    0.093564792

Difference to translation invariance:
           :   -0.0000000000   -0.0000000000    0.0000000000

Norm of the cartesian gradient     ...    0.1475948671
RMS gradient                       ...    0.0284046454
MAX gradient                       ...    0.0935647916

-------
TIMINGS
-------

Total SCF gradient time            ...       12.163 sec

One electron gradient       ....       0.061 sec  (  0.5%)
Prescreening matrices       ....       0.254 sec  (  2.1%)
Two electron gradient       ....      10.418 sec  ( 85.7%)
------------------------------------------------------------------------------
                         ORCA GEOMETRY RELAXATION STEP
------------------------------------------------------------------------------

Reading the OPT-File                    .... done
Getting information on internals        .... done
Copying old internal coords+grads       .... done
Making the new internal coordinates     .... (new redundants).... done
Validating the new internal coordinates .... (new redundants).... done
Calculating the B-matrix                .... done
Calculating the G,G- and P matrices     .... done
Transforming gradient to internals      .... done
Projecting the internal gradient        .... done
Number of atoms                         ....   9
Number of internal coordinates          .... 114
Current Energy                          .... -3053.823065174 Eh
Current gradient norm                   ....     0.147594867 Eh/bohr
Maximum allowed component of the step   ....  0.300
Current trust radius                    ....  0.300
Resetting Hessian after 50 BFGS Update Steps....
Build internal Hessian                  .... (Almloef) done
Updating Hessian with the last 5 steps  .... done
Forming the augmented Hessian           .... done
Diagonalizing the augmented Hessian     .... done
Last element of RFO vector              ....  0.941340318
Lowest eigenvalues of augmented Hessian:
 -0.014203382  0.015496988  0.026483554  0.058375117  0.069987040
Length of the computed step             ....  0.358487508
Warning: the length of the step is outside the trust region - taking restricted step instead
The input lambda is                     ....    -0.014203
   iter:   1  x=   -0.020830  g=    5.811832 f(x)=     0.038513
   iter:   2  x=   -0.023067  g=    3.611802 f(x)=     0.008079
   iter:   3  x=   -0.023245  g=    3.130132 f(x)=     0.000556
   iter:   4  x=   -0.023246  g=    3.095742 f(x)=     0.000003
   iter:   5  x=   -0.023246  g=    3.095552 f(x)=     0.000000
   iter:   6  x=   -0.023246  g=    3.095552 f(x)=    -0.000000
The output lambda is                    ....    -0.023246 (6 iterations)
The final length of the internal step   ....  0.300000000
Converting the step to cartesian space:
 Initial RMS(Int)=    0.0280975743
Transforming coordinates:
 Iter   0:  RMS(Cart)=    0.0504314592 RMS(Int)=    0.0280998523
 Iter   1:  RMS(Cart)=    0.0022673903 RMS(Int)=    0.0010303602
 Iter   2:  RMS(Cart)=    0.0001162578 RMS(Int)=    0.0000563572
 Iter   3:  RMS(Cart)=    0.0000035287 RMS(Int)=    0.0000020561
 Iter   4:  RMS(Cart)=    0.0000002223 RMS(Int)=    0.0000001187
 Iter   5:  RMS(Cart)=    0.0000000191 RMS(Int)=    0.0000000092
done
Storing new coordinates                 .... done

                                .--------------------.
          ----------------------|Geometry convergence|-------------------------
          Item                value                   Tolerance       Converged
          ---------------------------------------------------------------------
          Energy change      -0.0002998411            0.0000050000      NO
          RMS gradient        0.0081311694            0.0001000000      NO
          MAX gradient        0.0433603162            0.0003000000      NO
          RMS step            0.0280975743            0.0020000000      NO
          MAX step            0.1249485340            0.0040000000      NO
          ........................................................
          Max(Bonds)      0.0259      Max(Angles)    4.21
          Max(Dihed)        7.16      Max(Improp)    0.00
          ---------------------------------------------------------------------

The optimization has not yet converged - more geometry cycles are needed


    ---------------------------------------------------------------------------
                         Redundant Internal Coordinates
                            (Angstroem and degrees)

        Definition                    Value    dE/dq     Step     New-Value
    ----------------------------------------------------------------------------
     1. B(Co  7,O   6)                2.4641  0.002784 -0.0125    2.4516   
     2. B(Co  7,O   3)                2.9437 -0.001828 -0.0259    2.9178   
     3. B(Co  7,O   0)                2.0870 -0.014267  0.0098    2.0969   
     4. B(Co  7,O   2)                1.8609  0.001430 -0.0080    1.8529   
     5. B(Co  7,O   1)                1.6679 -0.012872  0.0070    1.6749   
     6. B(Mn  8,O   1)                1.8750 -0.023791  0.0200    1.8950   
     7. B(Mn  8,Co  7)                2.3986 -0.004560  0.0082    2.4068   
     8. B(Mn  8,O   0)                1.8229 -0.039187  0.0252    1.8481   
     9. B(Mn  8,O   5)                1.8889 -0.003197  0.0048    1.8937   
    10. B(Mn  8,O   4)                1.9733 -0.015428  0.0110    1.9843   
    11. B(Mn  8,O   3)                1.8006 -0.043360  0.0250    1.8256   
    12. B(Mn  8,O   2)                1.8783 -0.023988  0.0196    1.8979   
    13. A(Co  7,O   0,Mn  8)           75.34  0.009057   -0.45     74.90   
    14. A(Co  7,O   1,Mn  8)           85.01  0.008422   -0.47     84.54   
    15. A(Co  7,O   2,Mn  8)           79.80  0.003697    0.03     79.83   
    16. A(Co  7,O   3,Mn  8)           54.51 -0.000429    0.89     55.40   
    17. A(O   2,Co  7,O   3)           58.89 -0.007514    0.67     59.56   
    18. A(O   6,Co  7,Mn  8)          150.21  0.005725   -0.20    150.00   
    19. A(O   0,Co  7,Mn  8)           47.33 -0.008679    0.52     47.84   
    20. A(O   2,Co  7,O   6)          129.05  0.004899   -0.13    128.93   
    21. A(O   3,Co  7,Mn  8)           37.68 -0.009300    0.95     38.63   
    22. A(O   1,Co  7,Mn  8)           51.14 -0.006173    0.47     51.61   
    23. A(O   1,Co  7,O   2)           82.68 -0.009720    0.66     83.34   
    24. A(O   1,Co  7,O   6)           99.87  0.011814   -0.73     99.13   
    25. A(O   0,Co  7,O   2)           86.72 -0.010935    0.79     87.51   
    26. A(O   0,Co  7,O   6)          143.90  0.005748   -0.63    143.27   
    27. A(O   2,Co  7,Mn  8)           50.42 -0.006153    0.49     50.91   
    28. A(O   0,Co  7,O   3)           30.04 -0.003729    0.31     30.35   
    29. A(O   3,Co  7,O   6)          170.34  0.003864   -0.81    169.54   
    30. A(O   0,Co  7,O   1)           77.62 -0.010982    0.76     78.38   
    31. A(O   1,Co  7,O   3)           86.16 -0.014702    1.39     87.56   
    32. A(O   0,Mn  8,O   2)           94.39  0.003035   -0.51     93.88   
    33. A(O   4,Mn  8,O   5)          165.15 -0.001791   -0.09    165.06   
    34. A(O   3,Mn  8,O   5)          114.14 -0.002253    3.58    117.72   
    35. A(O   1,Mn  8,O   5)           93.04  0.002125   -4.21     88.83   
    36. A(O   0,Mn  8,O   1)           79.94 -0.002407    0.03     79.97   
    37. A(O   0,Mn  8,O   5)          143.19  0.000382    0.12    143.31   
    38. A(O   2,Mn  8,O   5)           49.02 -0.002524   -0.06     48.96   
    39. A(O   3,Mn  8,O   4)           76.19 -0.002914    1.60     77.78   
    40. A(O   2,Mn  8,O   4)          145.16  0.006232   -1.14    144.02   
    41. A(O   1,Mn  8,O   4)           88.39  0.004989   -1.70     86.69   
    42. A(O   0,Mn  8,O   4)           51.57  0.002062   -0.15     51.41   
    43. A(O   5,Mn  8,Co  7)           92.85  0.001116   -2.26     90.59   
    44. A(O   2,Mn  8,O   3)           87.44  0.007492   -1.32     86.12   
    45. A(O   1,Mn  8,O   3)          126.68  0.007155   -1.62    125.05   
    46. A(O   2,Mn  8,Co  7)           49.78  0.002457   -0.52     49.26   
    47. A(O   1,Mn  8,Co  7)           43.85 -0.002250    0.00     43.85   
    48. A(O   0,Mn  8,O   3)           50.45  0.007751   -1.14     49.31   
    49. A(O   3,Mn  8,Co  7)           87.81  0.009729   -1.84     85.97   
    50. A(O   4,Mn  8,Co  7)           98.36  0.004432   -1.23     97.14   
    51. A(O   0,Mn  8,Co  7)           57.33 -0.000378   -0.07     57.26   
    52. A(O   1,Mn  8,O   2)           76.96 -0.000490   -0.43     76.53   
    53. D(O   6,Co  7,O   3,Mn  8)    148.66 -0.004291    1.08    149.75   
    54. D(O   0,Co  7,O   3,Mn  8)     91.37  0.000499   -0.86     90.51   
    55. D(O   1,Co  7,O   2,Mn  8)    -44.39  0.002843   -0.31    -44.71   
    56. D(O   6,Co  7,O   1,Mn  8)    172.31  0.000606    0.31    172.62   
    57. D(O   0,Co  7,O   2,Mn  8)     33.53 -0.006631    0.34     33.87   
    58. D(O   3,Co  7,O   2,Mn  8)     45.53 -0.007608    0.84     46.37   
    59. D(O   3,Co  7,O   1,Mn  8)    -15.29  0.003057   -0.18    -15.47   
    60. D(O   0,Co  7,O   1,Mn  8)    -44.42  0.004945   -0.24    -44.66   
    61. D(O   1,Co  7,O   3,Mn  8)     19.63 -0.001467   -0.07     19.56   
    62. D(O   2,Co  7,O   0,Mn  8)    -35.38  0.005038   -0.31    -35.70   
    63. D(O   3,Co  7,O   0,Mn  8)    -56.21  0.006058   -1.17    -57.38   
    64. D(O   1,Co  7,O   0,Mn  8)     47.84 -0.002229    0.16     48.00   
    65. D(O   2,Co  7,O   1,Mn  8)     43.82 -0.002896    0.34     44.16   
    66. D(O   6,Co  7,O   2,Mn  8)   -141.19 -0.004423    0.10   -141.09   
    67. D(O   6,Co  7,O   0,Mn  8)    137.65  0.001640    0.10    137.75   
    68. D(O   2,Co  7,O   3,Mn  8)    -64.14  0.001057    0.00    -64.13   
    69. D(O   4,Mn  8,O   2,Co  7)    -28.15 -0.004768    3.16    -24.99   
    70. D(O   4,Mn  8,Co  7,O   3)     75.69 -0.001724    1.41     77.11   
    71. D(O   1,Mn  8,O   2,Co  7)     39.32 -0.001153    0.11     39.42   
    72. D(O   5,Mn  8,O   1,Co  7)    -90.95  0.000680   -1.10    -92.06   
    73. D(O   3,Mn  8,Co  7,O   0)    -42.90 -0.001432   -0.07    -42.98   
    74. D(O   2,Mn  8,Co  7,O   6)    101.61 -0.002563    0.64    102.25   
    75. D(O   3,Mn  8,O   1,Co  7)     32.43  0.003541   -1.12     31.31   
    76. D(O   4,Mn  8,O   1,Co  7)    103.84  0.001780    0.03    103.87   
    77. D(O   3,Mn  8,Co  7,O   6)   -169.89 -0.001010    0.47   -169.42   
    78. D(O   0,Mn  8,O   2,Co  7)    -39.29  0.002161    0.00    -39.29   
    79. D(O   4,Mn  8,Co  7,O   6)    -94.20 -0.002735    1.88    -92.32   
    80. D(O   3,Mn  8,O   2,Co  7)    -89.30 -0.006330    1.28    -88.01   
    81. D(O   5,Mn  8,Co  7,O   2)    -25.57  0.003466   -3.67    -29.24   
    82. D(O   5,Mn  8,O   2,Co  7)    145.18  0.003552   -5.38    139.79   
    83. D(O   2,Mn  8,O   1,Co  7)    -44.30 -0.002939    0.30    -43.99   
    84. D(O   1,Mn  8,Co  7,O   6)    -15.38 -0.000950    0.69    -14.69   
    85. D(O   0,Mn  8,O   1,Co  7)     52.64  0.000953   -0.15     52.50   
    86. D(O   5,Mn  8,O   0,Co  7)     40.69  0.001364   -7.16     33.53   
    87. D(O   1,Mn  8,Co  7,O   0)    111.60 -0.001372    0.15    111.75   
    88. D(O   0,Mn  8,Co  7,O   6)   -126.99  0.000422    0.54   -126.44   
    89. D(O   4,Mn  8,O   0,Co  7)   -136.84 -0.006741    2.25   -134.59   
    90. D(O   0,Mn  8,Co  7,O   3)     42.90  0.001432    0.07     42.98   
    91. D(O   0,Mn  8,Co  7,O   2)    131.40  0.002984   -0.09    131.31   
    92. D(O   3,Mn  8,O   0,Co  7)    118.09  0.008411   -1.80    116.28   
    93. D(O   1,Mn  8,Co  7,O   2)   -116.99  0.001612    0.06   -116.94   
    94. D(O   1,Mn  8,Co  7,O   3)    154.51  0.000060    0.22    154.73   
    95. D(O   0,Mn  8,Co  7,O   1)   -111.60  0.001372   -0.15   -111.75   
    96. D(O   2,Mn  8,Co  7,O   0)   -131.40 -0.002984    0.09   -131.31   
    97. D(O   2,Mn  8,Co  7,O   1)    116.99 -0.001612   -0.06    116.94   
    98. D(O   2,Mn  8,Co  7,O   3)    -88.50 -0.001552    0.17    -88.33   
    99. D(O   5,Mn  8,O   3,Co  7)     92.15  0.005621   -3.30     88.84   
   100. D(O   2,Mn  8,O   0,Co  7)     35.06 -0.000225   -0.28     34.78   
   101. D(O   3,Mn  8,Co  7,O   1)   -154.51 -0.000060   -0.22   -154.73   
   102. D(O   3,Mn  8,Co  7,O   2)     88.50  0.001552   -0.17     88.33   
   103. D(O   4,Mn  8,O   3,Co  7)    -99.16 -0.002323    0.91    -98.25   
   104. D(O   4,Mn  8,Co  7,O   0)     32.79 -0.003157    1.34     34.13   
   105. D(O   4,Mn  8,Co  7,O   1)    -78.81 -0.001785    1.19    -77.62   
   106. D(O   4,Mn  8,Co  7,O   2)    164.19 -0.000172    1.24    165.44   
   107. D(O   2,Mn  8,O   3,Co  7)     49.82  0.002112   -0.46     49.37   
   108. D(O   1,Mn  8,O   0,Co  7)    -40.85  0.001186    0.05    -40.80   
   109. D(O   5,Mn  8,Co  7,O   0)   -156.97  0.000481   -3.57   -160.55   
   110. D(O   5,Mn  8,Co  7,O   1)     91.42  0.001853   -3.72     87.70   
   111. D(O   1,Mn  8,O   3,Co  7)    -21.82 -0.001145    0.68    -21.15   
   112. D(O   5,Mn  8,Co  7,O   3)   -114.07  0.001914   -3.50   -117.57   
   113. D(O   5,Mn  8,Co  7,O   6)     76.04  0.000903   -3.03     73.01   
   114. D(O   0,Mn  8,O   3,Co  7)    -48.00  0.005668   -1.10    -49.10   
    ----------------------------------------------------------------------------




    ----------------------------------------------------------------------------
                                   ERROR !!!
       The optimization did not converge but reached the maximum 
       number of optimization cycles.
       As a subsequent Frequencies calculation has been requested
       ORCA will abort at this point of the run.
       Please restart the calculation with the lowest energy geometry and/or
       a larger maxiter for the geometry optimization.
    ----------------------------------------------------------------------------


[file orca_main/run.cpp, line 10680]: ORCA finished with error return - aborting the run
