
                                 *****************
                                 * O   R   C   A *
                                 *****************

                                            #,                                       
                                            ###                                      
                                            ####                                     
                                            #####                                    
                                            ######                                   
                                           ########,                                 
                                     ,,################,,,,,                         
                               ,,#################################,,                 
                          ,,##########################################,,             
                       ,#########################################, ''#####,          
                    ,#############################################,,   '####,        
                  ,##################################################,,,,####,       
                ,###########''''           ''''###############################       
              ,#####''   ,,,,##########,,,,          '''####'''          '####       
            ,##' ,,,,###########################,,,                        '##       
           ' ,,###''''                  '''############,,,                           
         ,,##''                                '''############,,,,        ,,,,,,###''
      ,#''                                            '''#######################'''  
     '                                                          ''''####''''         
             ,#######,   #######,   ,#######,      ##                                
            ,#'     '#,  ##    ##  ,#'     '#,    #''#        ######   ,####,        
            ##       ##  ##   ,#'  ##            #'  '#       #        #'  '#        
            ##       ##  #######   ##           ,######,      #####,   #    #        
            '#,     ,#'  ##    ##  '#,     ,#' ,#      #,         ##   #,  ,#        
             '#######'   ##     ##  '#######'  #'      '#     #####' # '####'        



                  #######################################################
                  #                        -***-                        #
                  #          Department of theory and spectroscopy      #
                  #    Directorship and core code : Frank Neese         #
                  #        Max Planck Institute fuer Kohlenforschung    #
                  #                Kaiser Wilhelm Platz 1               #
                  #                 D-45470 Muelheim/Ruhr               #
                  #                      Germany                        #
                  #                                                     #
                  #                  All rights reserved                #
                  #                        -***-                        #
                  #######################################################


                         Program Version 5.0.3 -  RELEASE  -


 With contributions from (in alphabetic order):
   Daniel Aravena         : Magnetic Suceptibility
   Michael Atanasov       : Ab Initio Ligand Field Theory (pilot matlab implementation)
   Alexander A. Auer      : GIAO ZORA, VPT2 properties, NMR spectrum
   Ute Becker             : Parallelization
   Giovanni Bistoni       : ED, misc. LED, open-shell LED, HFLD
   Martin Brehm           : Molecular dynamics
   Dmytro Bykov           : SCF Hessian
   Vijay G. Chilkuri      : MRCI spin determinant printing, contributions to CSF-ICE
   Dipayan Datta          : RHF DLPNO-CCSD density
   Achintya Kumar Dutta   : EOM-CC, STEOM-CC
   Dmitry Ganyushin       : Spin-Orbit,Spin-Spin,Magnetic field MRCI
   Miquel Garcia          : C-PCM and meta-GGA Hessian, CC/C-PCM, Gaussian charge scheme
   Yang Guo               : DLPNO-NEVPT2, F12-NEVPT2, CIM, IAO-localization
   Andreas Hansen         : Spin unrestricted coupled pair/coupled cluster methods
   Benjamin Helmich-Paris : MC-RPA, TRAH-SCF, COSX integrals
   Lee Huntington         : MR-EOM, pCC
   Robert Izsak           : Overlap fitted RIJCOSX, COSX-SCS-MP3, EOM
   Marcus Kettner         : VPT2
   Christian Kollmar      : KDIIS, OOCD, Brueckner-CCSD(T), CCSD density, CASPT2, CASPT2-K
   Simone Kossmann        : Meta GGA functionals, TD-DFT gradient, OOMP2, MP2 Hessian
   Martin Krupicka        : Initial AUTO-CI
   Lucas Lang             : DCDCAS
   Marvin Lechner         : AUTO-CI (C++ implementation), FIC-MRCC
   Dagmar Lenk            : GEPOL surface, SMD
   Dimitrios Liakos       : Extrapolation schemes; Compound Job, initial MDCI parallelization
   Dimitrios Manganas     : Further ROCIS development; embedding schemes
   Dimitrios Pantazis     : SARC Basis sets
   Anastasios Papadopoulos: AUTO-CI, single reference methods and gradients
   Taras Petrenko         : DFT Hessian,TD-DFT gradient, ASA, ECA, R-Raman, ABS, FL, XAS/XES, NRVS
   Peter Pinski           : DLPNO-MP2, DLPNO-MP2 Gradient
   Christoph Reimann      : Effective Core Potentials
   Marius Retegan         : Local ZFS, SOC
   Christoph Riplinger    : Optimizer, TS searches, QM/MM, DLPNO-CCSD(T), (RO)-DLPNO pert. Triples
   Tobias Risthaus        : Range-separated hybrids, TD-DFT gradient, RPA, STAB
   Michael Roemelt        : Original ROCIS implementation
   Masaaki Saitow         : Open-shell DLPNO-CCSD energy and density
   Barbara Sandhoefer     : DKH picture change effects
   Avijit Sen             : IP-ROCIS
   Kantharuban Sivalingam : CASSCF convergence, NEVPT2, FIC-MRCI
   Bernardo de Souza      : ESD, SOC TD-DFT
   Georgi Stoychev        : AutoAux, RI-MP2 NMR, DLPNO-MP2 response
   Willem Van den Heuvel  : Paramagnetic NMR
   Boris Wezisla          : Elementary symmetry handling
   Frank Wennmohs         : Technical directorship


 We gratefully acknowledge several colleagues who have allowed us to
 interface, adapt or use parts of their codes:
   Stefan Grimme, W. Hujo, H. Kruse, P. Pracht,  : VdW corrections, initial TS optimization,
                  C. Bannwarth, S. Ehlert          DFT functionals, gCP, sTDA/sTD-DF
   Ed Valeev, F. Pavosevic, A. Kumar             : LibInt (2-el integral package), F12 methods
   Garnet Chan, S. Sharma, J. Yang, R. Olivares  : DMRG
   Ulf Ekstrom                                   : XCFun DFT Library
   Mihaly Kallay                                 : mrcc  (arbitrary order and MRCC methods)
   Jiri Pittner, Ondrej Demel                    : Mk-CCSD
   Frank Weinhold                                : gennbo (NPA and NBO analysis)
   Christopher J. Cramer and Donald G. Truhlar   : smd solvation model
   Lars Goerigk                                  : TD-DFT with DH, B97 family of functionals
   V. Asgeirsson, H. Jonsson                     : NEB implementation
   FAccTs GmbH                                   : IRC, NEB, NEB-TS, DLPNO-Multilevel, CI-OPT
                                                   MM, QMMM, 2- and 3-layer-ONIOM, Crystal-QMMM,
                                                   LR-CPCM, SF, NACMEs, symmetry and pop. for TD-DFT,
                                                   nearIR, NL-DFT gradient (VV10), updates on ESD,
                                                   ML-optimized integration grids
   S Lehtola, MJT Oliveira, MAL Marques          : LibXC Library
   Liviu Ungur et al                             : ANISO software


 Your calculation uses the libint2 library for the computation of 2-el integrals
 For citations please refer to: http://libint.valeyev.net

 Your ORCA version has been built with support for libXC version: 5.1.0
 For citations please refer to: https://tddft.org/programs/libxc/

 This ORCA versions uses:
   CBLAS   interface :  Fast vector & matrix operations
   LAPACKE interface :  Fast linear algebra routines
   SCALAPACK package :  Parallel linear algebra routines
   Shared memory     :  Shared parallel matrices
   BLAS/LAPACK       :  OpenBLAS 0.3.15  USE64BITINT DYNAMIC_ARCH NO_AFFINITY Excavator SINGLE_THREADED
        Core in use  :  Excavator
   Copyright (c) 2011-2014, The OpenBLAS Project


SCAN-COORDS
================================================================================

----- Orbital basis set information -----
Your calculation utilizes the basis: def2-SVP
   F. Weigend and R. Ahlrichs, Phys. Chem. Chem. Phys. 7, 3297 (2005).

----- AuxJ basis set information -----
Your calculation utilizes the auxiliary basis: def2/J
   F. Weigend, Phys. Chem. Chem. Phys. 8, 1057 (2006).

================================================================================
                                        WARNINGS
                       Please study these warnings very carefully!
================================================================================


WARNING: your system is open-shell and RHF/RKS was chosen
  ===> : WILL SWITCH to UHF/UKS


WARNING: Geometry Optimization
  ===> : Switching off AutoStart
         For restart on a previous wavefunction, please use MOREAD

INFO   : the flag for use of the SHARK integral package has been found!

================================================================================
                                       INPUT FILE
================================================================================
NAME = inputAdvance_COMPLETE.inp
|  1> ! VWN
|  2> %method
|  3>         method DFT
|  4>         runtyp OPT
|  5> end
|  6> %basis
|  7>         basis "def2-SVP"
|  8> end
|  9> 
| 10> %cpcm
| 11>        epsilon 80.4
| 12>        refrac 1.33
| 13>        fepstype cosmo
| 14> end
| 15> %scf
| 16>        MaxIter 500
| 17> end
| 18> %geom
| 19>        MaxIter 500
| 20>        Convergence loose
| 21> end
| 22> 
| 23> ! NumFreq
| 24> %elprop
| 25>         Polar 1
| 26> end
| 27> %output
| 28>         XYZFile true
| 29> end
| 30> 
| 31> %coords
| 32>         CTyp xyz
| 33>         Charge 0
| 34>         Mult 2
| 35>         Units Angs
| 36>         coords
| 37>         O      0.216214   -0.006219    1.965016
| 38> 	O      1.457860    1.465908    0.170578
| 39> 	O      1.461175   -1.657734    0.336658
| 40> 	O     -1.619033   -1.285334   -0.190267
| 41> 	O     -1.795432    1.335463   -0.018287
| 42> 	O     -0.178454   -0.282819   -2.151821
| 43> 	O      2.928865    0.033011    2.655076
| 44> 	Co     1.916410   -0.048912    1.128433
| 45> 	Mn    -0.107478   -0.107705    0.062356
| 46> 	O     -3.398012   -0.438743   -2.179417
| 47> 	Co    -1.827952    0.136125   -1.426456
| 48> 	H     -3.665118    0.296023   -2.786998
| 49> 	H      3.863775   -0.035801    2.336404
| 50>         end
| 51> end
| 52> 
| 53>                          ****END OF INPUT****
================================================================================

                       *****************************
                       * Geometry Optimization Run *
                       *****************************

Geometry optimization settings:
Update method            Update   .... BFGS
Choice of coordinates    CoordSys .... Z-matrix Internals
Initial Hessian          InHess   .... Almoef's Model

Convergence Tolerances:
Energy Change            TolE     ....  3.0000e-05 Eh
Max. Gradient            TolMAXG  ....  2.0000e-03 Eh/bohr
RMS Gradient             TolRMSG  ....  5.0000e-04 Eh/bohr
Max. Displacement        TolMAXD  ....  1.0000e-02 bohr
RMS Displacement         TolRMSD  ....  7.0000e-03 bohr
Strict Convergence                ....  False
------------------------------------------------------------------------------
                        ORCA OPTIMIZATION COORDINATE SETUP
------------------------------------------------------------------------------

The optimization will be done in new redundant internal coordinates
Making redundant internal coordinates   ...  (new redundants) done
Evaluating the initial hessian          ...  (Almloef) done
Evaluating the coordinates              ...  done
Calculating the B-matrix                .... done
Calculating the G-matrix                .... done
Diagonalizing the G-matrix              .... done
The first mode is                       ....  153
The number of degrees of freedom        ....   33

    -----------------------------------------------------------------
                    Redundant Internal Coordinates


    -----------------------------------------------------------------
         Definition                    Initial Value    Approx d2E/dq
    -----------------------------------------------------------------
      1. B(Co  7,O   6)                  1.8337         1.109488   
      2. B(Co  7,O   2)                  1.8500         1.045007   
      3. B(Co  7,O   1)                  1.8500         1.045028   
      4. B(Co  7,O   0)                  1.8954         0.884592   
      5. B(Mn  8,O   1)                  2.2222         0.266225   
      6. B(Mn  8,O   2)                  2.2223         0.266170   
      7. B(Mn  8,O   0)                  1.9327         0.771284   
      8. B(Mn  8,O   4)                  2.2223         0.266187   
      9. B(Mn  8,O   5)                  2.2222         0.266219   
     10. B(Mn  8,Co  7)                  2.2883         2.359846   
     11. B(Mn  8,O   3)                  1.9327         0.771111   
     12. B(Co 10,O   5)                  1.8500         1.044947   
     13. B(Co 10,O   4)                  1.8500         1.045054   
     14. B(Co 10,Mn  8)                  2.2882         2.359949   
     15. B(Co 10,O   3)                  1.8954         0.884595   
     16. B(Co 10,O   9)                  1.8337         1.109381   
     17. B(H  11,O   9)                  0.9901         0.465454   
     18. B(H  12,O   6)                  0.9901         0.465487   
     19. A(Co  7,O   0,Mn  8)           73.4126         0.607000   
     20. A(Co  7,O   1,Mn  8)           67.6650         0.511818   
     21. A(Co  7,O   2,Mn  8)           67.6636         0.511796   
     22. A(Mn  8,O   3,Co 10)           73.4108         0.606974   
     23. A(Mn  8,O   4,Co 10)           67.6638         0.511806   
     24. A(Mn  8,O   5,Co 10)           67.6641         0.511808   
     25. A(Co  7,O   6,H  12)          104.4946         0.451088   
     26. A(O   2,Co  7,O   6)          122.0760         0.673052   
     27. A(O   6,Co  7,Mn  8)          151.3277         0.875239   
     28. A(O   1,Co  7,O   2)          115.4355         0.665193   
     29. A(O   1,Co  7,O   6)          122.0961         0.673055   
     30. A(O   0,Co  7,Mn  8)           54.0427         0.835943   
     31. A(O   1,Co  7,Mn  8)           63.9335         0.864659   
     32. A(O   0,Co  7,O   2)           89.2987         0.643862   
     33. A(O   0,Co  7,O   6)           97.2850         0.651432   
     34. A(O   0,Co  7,O   1)           89.2978         0.643864   
     35. A(O   2,Co  7,Mn  8)           63.9353         0.864656   
     36. A(O   2,Mn  8,O   3)           98.2329         0.483688   
     37. A(O   0,Mn  8,Co  7)           52.5447         0.813126   
     38. A(O   1,Mn  8,O   3)          171.3929         0.483706   
     39. A(O   4,Mn  8,O   5)           89.4704         0.399256   
     40. A(O   0,Mn  8,O   3)          106.9575         0.591151   
     41. A(O   1,Mn  8,O   2)           89.4662         0.399253   
     42. A(O   3,Mn  8,O   5)           78.2742         0.483704   
     43. A(O   2,Mn  8,O   5)           95.1963         0.399251   
     44. A(O   0,Mn  8,O   2)           78.2809         0.483708   
     45. A(O   1,Mn  8,O   5)           97.2860         0.399266   
     46. A(O   0,Mn  8,Co 10)          139.5407         0.813133   
     47. A(O   1,Mn  8,Co  7)           48.4015         0.658186   
     48. A(O   2,Mn  8,Co  7)           48.4011         0.658159   
     49. A(O   0,Mn  8,O   5)          172.0534         0.483724   
     50. A(O   3,Mn  8,O   4)           78.2821         0.483694   
     51. A(O   2,Mn  8,O   4)          173.5172         0.399243   
     52. A(O   0,Mn  8,O   1)           78.2814         0.483726   
     53. A(O   5,Mn  8,Co  7)          119.6353         0.658183   
     54. A(O   1,Mn  8,O   4)           94.4127         0.399257   
     55. A(O   4,Mn  8,Co  7)          132.2243         0.658167   
     56. A(O   3,Mn  8,Co  7)          140.1997         0.813089   
     57. A(O   0,Mn  8,O   4)           97.4026         0.483714   
     58. A(Co  7,Mn  8,Co 10)          164.8838         1.133181   
     59. A(O   1,Mn  8,Co 10)          119.0684         0.658191   
     60. A(O   2,Mn  8,Co 10)          133.2644         0.658165   
     61. A(O   3,Mn  8,Co 10)           52.5443         0.813096   
     62. A(O   4,Mn  8,Co 10)           48.4011         0.658173   
     63. A(O   5,Mn  8,Co 10)           48.4022         0.658188   
     64. A(Co 10,O   9,H  11)          104.4956         0.451074   
     65. A(Mn  8,Co 10,O   9)          151.3457         0.875229   
     66. A(O   5,Co 10,O   9)          122.1019         0.673032   
     67. A(O   4,Co 10,O   9)          122.0629         0.673046   
     68. A(O   3,Co 10,O   9)           97.3008         0.651421   
     69. A(O   5,Co 10,Mn  8)           63.9337         0.864653   
     70. A(O   4,Co 10,Mn  8)           63.9351         0.864671   
     71. A(O   3,Co 10,Mn  8)           54.0449         0.835951   
     72. A(O   4,Co 10,O   5)          115.4415         0.665189   
     73. A(O   3,Co 10,O   5)           89.2902         0.643855   
     74. A(O   3,Co 10,O   4)           89.3015         0.643868   
     75. D(O   6,Co  7,O   0,Mn  8)   -179.9907         0.005101   
     76. D(O   0,Co  7,O   6,H  12)    176.8452         0.007230   
     77. D(Mn  8,Co  7,O   6,H  12)    176.8296         0.007230   
     78. D(O   6,Co  7,O   2,Mn  8)    147.7930         0.006566   
     79. D(O   2,Co  7,O   6,H  12)     83.0865         0.007230   
     80. D(O   1,Co  7,O   2,Mn  8)    -39.2588         0.006566   
     81. D(O   2,Co  7,O   0,Mn  8)    -57.7254         0.005101   
     82. D(O   1,Co  7,O   0,Mn  8)     57.7237         0.005101   
     83. D(O   0,Co  7,O   2,Mn  8)     49.6299         0.006566   
     84. D(O   0,Co  7,O   1,Mn  8)    -49.6298         0.006566   
     85. D(O   6,Co  7,O   1,Mn  8)   -147.7938         0.006566   
     86. D(O   2,Co  7,O   1,Mn  8)     39.2595         0.006566   
     87. D(O   1,Co  7,O   6,H  12)    -89.3937         0.007230   
     88. D(O   2,Mn  8,O   0,Co  7)     45.9544         0.004839   
     89. D(O   3,Mn  8,O   2,Co  7)   -155.4522         0.001901   
     90. D(O   1,Mn  8,O   0,Co  7)    -45.9545         0.004839   
     91. D(O   0,Mn  8,Co  7,O   6)      0.0192         0.004969   
     92. D(Co  7,Mn  8,O   5,Co 10)   -168.5729         0.001902   
     93. D(O   4,Mn  8,O   5,Co 10)    -28.4029         0.001902   
     94. D(O   2,Mn  8,O   1,Co  7)    -28.4098         0.001902   
     95. D(O   4,Mn  8,O   1,Co  7)    146.3900         0.001902   
     96. D(O   0,Mn  8,O   5,Co 10)   -178.3719         0.001902   
     97. D(O   5,Mn  8,O   1,Co  7)   -123.5802         0.001902   
     98. D(Co  7,Mn  8,O   4,Co 10)    159.6565         0.001902   
     99. D(O   5,Mn  8,O   4,Co 10)     28.4035         0.001902   
    100. D(O   3,Mn  8,O   4,Co 10)    -49.7292         0.001902   
    101. D(O   2,Mn  8,Co  7,O   0)   -109.7541         0.004969   
    102. D(O   4,Mn  8,O   2,Co  7)    -98.4234         0.001901   
    103. D(O   5,Mn  8,O   2,Co  7)    125.6776         0.001901   
    104. D(Co 10,Mn  8,O   2,Co  7)    159.5924         0.001901   
    105. D(Co 10,Mn  8,O   1,Co  7)   -169.5780         0.001902   
    106. D(O   2,Mn  8,O   4,Co 10)   -107.7209         0.001902   
    107. D(O   1,Mn  8,Co  7,O   0)    109.7546         0.004969   
    108. D(O   0,Mn  8,Co  7,O   1)   -109.7546         0.004969   
    109. D(O   1,Mn  8,O   4,Co 10)    125.6704         0.001902   
    110. D(Co 10,Mn  8,O   0,Co  7)   -167.3838         0.004839   
    111. D(O   0,Mn  8,O   4,Co 10)   -155.5974         0.001902   
    112. D(O   5,Mn  8,O   0,Co  7)     10.7399         0.004839   
    113. D(O   0,Mn  8,O   1,Co  7)     49.7306         0.001902   
    114. D(O   1,Mn  8,Co  7,O   2)   -140.4913         0.004969   
    115. D(O   0,Mn  8,O   2,Co  7)    -49.7309         0.001901   
    116. D(O   0,Mn  8,Co  7,O   2)    109.7541         0.004969   
    117. D(O   3,Mn  8,O   1,Co  7)    178.0415         0.001902   
    118. D(O   1,Mn  8,O   5,Co 10)   -122.7839         0.001902   
    119. D(O   2,Mn  8,O   5,Co 10)    147.0903         0.001902   
    120. D(O   3,Mn  8,O   5,Co 10)     49.7375         0.001902   
    121. D(Co 10,Mn  8,Co  7,O   1)     37.3229         0.004969   
    122. D(O   5,Mn  8,O   3,Co 10)    -45.9615         0.004837   
    123. D(O   1,Mn  8,Co  7,O   6)    109.7737         0.004969   
    124. D(O   4,Mn  8,O   3,Co 10)     45.9532         0.004837   
    125. D(O   2,Mn  8,O   3,Co 10)   -139.5982         0.004837   
    126. D(O   4,Mn  8,O   0,Co  7)   -138.9518         0.004839   
    127. D(O   1,Mn  8,O   3,Co 10)     13.6545         0.004837   
    128. D(O   4,Mn  8,Co  7,O   2)    171.3254         0.004969   
    129. D(O   4,Mn  8,Co  7,O   1)    -48.1833         0.004969   
    130. D(O   2,Mn  8,Co  7,O   1)    140.4913         0.004969   
    131. D(O   2,Mn  8,Co  7,O   6)   -109.7350         0.004969   
    132. D(O   3,Mn  8,Co  7,O   0)    -69.7876         0.004969   
    133. D(O   3,Mn  8,Co  7,O   1)   -179.5422         0.004969   
    134. D(O   3,Mn  8,Co  7,O   2)     39.9665         0.004969   
    135. D(O   3,Mn  8,Co  7,O   6)    -69.7685         0.004969   
    136. D(O   4,Mn  8,Co  7,O   0)     61.5712         0.004969   
    137. D(O   0,Mn  8,O   3,Co 10)    140.2152         0.004837   
    138. D(O   3,Mn  8,O   0,Co  7)    141.0974         0.004839   
    139. D(O   4,Mn  8,Co  7,O   6)     61.5904         0.004969   
    140. D(O   5,Mn  8,Co  7,O   0)   -178.3015         0.004969   
    141. D(O   5,Mn  8,Co  7,O   1)     71.9439         0.004969   
    142. D(O   5,Mn  8,Co  7,O   2)    -68.5474         0.004969   
    143. D(O   5,Mn  8,Co  7,O   6)   -178.2823         0.004969   
    144. D(Co 10,Mn  8,Co  7,O   0)    147.0775         0.004969   
    145. D(O   1,Mn  8,O   2,Co  7)     28.4100         0.001901   
    146. D(Co 10,Mn  8,Co  7,O   2)   -103.1684         0.004969   
    147. D(Co 10,Mn  8,Co  7,O   6)    147.0967         0.004969   
    148. D(Co  7,Mn  8,O   3,Co 10)   -168.6336         0.004837   
    149. D(Mn  8,Co 10,O   9,H  11)    173.7554         0.007229   
    150. D(O   4,Co 10,O   9,H  11)     80.0239         0.007229   
    151. D(O   3,Co 10,O   9,H  11)    173.7938         0.007229   
    152. D(O   9,Co 10,Mn  8,Co  7)    151.1154         0.004969   
    153. D(O   9,Co 10,Mn  8,O   4)   -109.7096         0.004969   
    154. D(O   9,Co 10,Mn  8,O   3)      0.0471         0.004969   
    155. D(O   9,Co 10,Mn  8,O   2)     61.7973         0.004969   
    156. D(O   9,Co 10,Mn  8,O   0)    -70.5581         0.004969   
    157. D(O   5,Co 10,Mn  8,Co  7)     41.3267         0.004969   
    158. D(O   5,Co 10,Mn  8,O   4)    140.5017         0.004969   
    159. D(O   5,Co 10,Mn  8,O   3)   -109.7416         0.004969   
    160. D(O   5,Co 10,Mn  8,O   2)    -47.9914         0.004969   
    161. D(O   5,Co 10,Mn  8,O   1)     72.5750         0.004969   
    162. D(O   5,Co 10,Mn  8,O   0)    179.6532         0.004969   
    163. D(O   4,Co 10,Mn  8,O   5)   -140.5017         0.004969   
    164. D(O   4,Co 10,Mn  8,O   3)    109.7567         0.004969   
    165. D(O   4,Co 10,Mn  8,O   2)    171.5069         0.004969   
    166. D(O   4,Co 10,Mn  8,O   1)    -67.9268         0.004969   
    167. D(O   4,Co 10,Mn  8,O   0)     39.1515         0.004969   
    168. D(O   4,Co 10,Mn  8,Co  7)    -99.1750         0.004969   
    169. D(O   3,Co 10,Mn  8,Co  7)    151.0683         0.004969   
    170. D(O   3,Co 10,Mn  8,O   5)    109.7416         0.004969   
    171. D(O   3,Co 10,Mn  8,O   4)   -109.7567         0.004969   
    172. D(O   3,Co 10,Mn  8,O   2)     61.7502         0.004969   
    173. D(O   3,Co 10,Mn  8,O   1)   -177.6834         0.004969   
    174. D(O   3,Co 10,Mn  8,O   0)    -70.6052         0.004969   
    175. D(O   9,Co 10,O   5,Mn  8)   -147.8156         0.006565   
    176. D(O   9,Co 10,Mn  8,O   1)   -177.6364         0.004969   
    177. D(O   4,Co 10,O   5,Mn  8)     39.2515         0.006565   
    178. D(O   3,Co 10,O   5,Mn  8)    -49.6372         0.006565   
    179. D(O   9,Co 10,O   4,Mn  8)    147.8131         0.006566   
    180. D(O   9,Co 10,Mn  8,O   5)    109.7887         0.004969   
    181. D(O   5,Co 10,O   4,Mn  8)    -39.2509         0.006566   
    182. D(O   3,Co 10,O   4,Mn  8)     49.6307         0.006566   
    183. D(O   9,Co 10,O   3,Mn  8)   -179.9773         0.005101   
    184. D(O   5,Co 10,O   9,H  11)    -92.4431         0.007229   
    185. D(O   5,Co 10,O   3,Mn  8)     57.7314         0.005101   
    186. D(O   4,Co 10,O   3,Mn  8)    -57.7238         0.005101   
    -----------------------------------------------------------------

Number of atoms                         .... 13
Number of degrees of freedom            .... 186

         *************************************************************
         *                GEOMETRY OPTIMIZATION CYCLE   1            *
         *************************************************************
---------------------------------
CARTESIAN COORDINATES (ANGSTROEM)
---------------------------------
  O      0.216214   -0.006219    1.965016
  O      1.457860    1.465908    0.170578
  O      1.461175   -1.657734    0.336658
  O     -1.619033   -1.285334   -0.190267
  O     -1.795432    1.335463   -0.018287
  O     -0.178454   -0.282819   -2.151821
  O      2.928865    0.033011    2.655076
  Co     1.916410   -0.048912    1.128433
  Mn    -0.107478   -0.107705    0.062356
  O     -3.398012   -0.438743   -2.179417
  Co    -1.827952    0.136125   -1.426456
  H     -3.665118    0.296023   -2.786998
  H      3.863775   -0.035801    2.336404

----------------------------
CARTESIAN COORDINATES (A.U.)
----------------------------
  NO LB      ZA    FRAG     MASS         X           Y           Z
   0 O     8.0000    0    15.999    0.408585   -0.011752    3.713342
   1 O     8.0000    0    15.999    2.754956    2.770165    0.322346
   2 O     8.0000    0    15.999    2.761221   -3.132663    0.636191
   3 O     8.0000    0    15.999   -3.059529   -2.428929   -0.359553
   4 O     8.0000    0    15.999   -3.392875    2.523659   -0.034557
   5 O     8.0000    0    15.999   -0.337229   -0.534450   -4.066352
   6 O     8.0000    0    15.999    5.534753    0.062382    5.017367
   7 Co   27.0000    0    58.930    3.621490   -0.092430    2.132429
   8 Mn   25.0000    0    54.940   -0.203104   -0.203533    0.117836
   9 O     8.0000    0    15.999   -6.421312   -0.829104   -4.118501
  10 Co   27.0000    0    58.930   -3.454329    0.257239   -2.695611
  11 H     1.0000    0     1.008   -6.926069    0.559402   -5.266663
  12 H     1.0000    0     1.008    7.301477   -0.067654    4.415164

--------------------------------
INTERNAL COORDINATES (ANGSTROEM)
--------------------------------
 O      0   0   0     0.000000000000     0.00000000     0.00000000
 O      1   0   0     2.632270964261     0.00000000     0.00000000
 O      1   2   0     2.632295474089    72.90719715     0.00000000
 O      1   2   3     3.106366292684    92.06211494   295.99803715
 O      4   1   2     2.632350782629    65.43634172   300.82195355
 O      4   1   2     2.632109092607    92.11363158    10.93474705
 O      1   2   3     2.799320854118    72.72926732    76.71338657
 Co     7   1   2     1.833689001549    42.19145714   321.52604560
 Mn     1   2   3     1.932664221912    55.75355561   300.19071432
 O      4   1   2     2.799678611238   138.06066238   304.72821162
 Co    10   4   1     1.833715323747    42.18296082    34.77288873
 H     10   4   1     0.990142091597   146.28319997    23.90432936
 H      7   1   2     0.990123044388   146.58339540   315.97406516

---------------------------
INTERNAL COORDINATES (A.U.)
---------------------------
 O      0   0   0     0.000000000000     0.00000000     0.00000000
 O      1   0   0     4.974271232725     0.00000000     0.00000000
 O      1   2   0     4.974317549589    72.90719715     0.00000000
 O      1   2   3     5.870181564817    92.06211494   295.99803715
 O      4   1   2     4.974422067583    65.43634172   300.82195355
 O      4   1   2     4.973965339630    92.11363158    10.93474705
 O      1   2   3     5.289949775258    72.72926732    76.71338657
 Co     7   1   2     3.465170027712    42.19145714   321.52604560
 Mn     1   2   3     3.652206088242    55.75355561   300.19071432
 O      4   1   2     5.290625838236   138.06066238   304.72821162
 Co    10   4   1     3.465219769457    42.18296082    34.77288873
 H     10   4   1     1.871097386787   146.28319997    23.90432936
 H      7   1   2     1.871061392778   146.58339540   315.97406516

---------------------
BASIS SET INFORMATION
---------------------
There are 4 groups of distinct atoms

 Group   1 Type O   : 7s4p1d contracted to 3s2p1d pattern {511/31/1}
 Group   2 Type Co  : 14s9p5d1f contracted to 5s3p2d1f pattern {63311/531/41/1}
 Group   3 Type Mn  : 14s9p5d1f contracted to 5s3p2d1f pattern {63311/531/41/1}
 Group   4 Type H   : 4s1p contracted to 2s1p pattern {31/1}

Atom   0O    basis set group =>   1
Atom   1O    basis set group =>   1
Atom   2O    basis set group =>   1
Atom   3O    basis set group =>   1
Atom   4O    basis set group =>   1
Atom   5O    basis set group =>   1
Atom   6O    basis set group =>   1
Atom   7Co   basis set group =>   2
Atom   8Mn   basis set group =>   3
Atom   9O    basis set group =>   1
Atom  10Co   basis set group =>   2
Atom  11H    basis set group =>   4
Atom  12H    basis set group =>   4
---------------------------------
AUXILIARY/J BASIS SET INFORMATION
---------------------------------
There are 4 groups of distinct atoms

 Group   1 Type O   : 12s5p4d2f1g contracted to 6s4p3d1f1g pattern {711111/2111/211/2/1}
 Group   2 Type Co  : 19s5p5d3f3g contracted to 8s5p5d2f3g pattern {121111111/11111/11111/21/111}
 Group   3 Type Mn  : 19s5p5d3f3g contracted to 8s5p5d2f3g pattern {121111111/11111/11111/21/111}
 Group   4 Type H   : 5s2p1d contracted to 3s1p1d pattern {311/2/1}

Atom   0O    basis set group =>   1
Atom   1O    basis set group =>   1
Atom   2O    basis set group =>   1
Atom   3O    basis set group =>   1
Atom   4O    basis set group =>   1
Atom   5O    basis set group =>   1
Atom   6O    basis set group =>   1
Atom   7Co   basis set group =>   2
Atom   8Mn   basis set group =>   3
Atom   9O    basis set group =>   1
Atom  10Co   basis set group =>   2
Atom  11H    basis set group =>   4
Atom  12H    basis set group =>   4
------------------------------------------------------------------------------
                           ORCA GTO INTEGRAL CALCULATION
                           -- RI-GTO INTEGRALS CHOSEN --
------------------------------------------------------------------------------
------------------------------------------------------------------------------
                   ___                                                        
                  /   \      - P O W E R E D   B Y -                         
                 /     \                                                     
                 |  |  |   _    _      __       _____    __    __             
                 |  |  |  | |  | |    /  \     |  _  \  |  |  /  |          
                  \  \/   | |  | |   /    \    | | | |  |  | /  /          
                 / \  \   | |__| |  /  /\  \   | |_| |  |  |/  /          
                |  |  |   |  __  | /  /__\  \  |    /   |      \           
                |  |  |   | |  | | |   __   |  |    \   |  |\   \          
                \     /   | |  | | |  |  |  |  | |\  \  |  | \   \       
                 \___/    |_|  |_| |__|  |__|  |_| \__\ |__|  \__/        
                                                                              
                      - O R C A' S   B I G   F R I E N D -                    
                                      &                                       
                       - I N T E G R A L  F E E D E R -                       
                                                                              
 v1 FN, 2020, v2 2021                                                         
------------------------------------------------------------------------------


Reading SHARK input file inputAdvance_COMPLETE.SHARKINP.tmp ... ok
----------------------
SHARK INTEGRAL PACKAGE
----------------------

Number of atoms                             ...     13
Number of basis functions                   ...    215
Number of shells                            ...     87
Maximum angular momentum                    ...      3
Integral batch strategy                     ... SHARK/LIBINT Hybrid
RI-J (if used) integral strategy            ... SPLIT-RIJ (Revised 2003 algorithm where possible)
Printlevel                                  ...      1
Contraction scheme used                     ... SEGMENTED contraction
Coulomb Range Separation                    ... NOT USED
Exchange Range Separation                   ... NOT USED
Finite Nucleus Model                        ... NOT USED
Auxiliary Coulomb fitting basis             ... AVAILABLE
   # of basis functions in Aux-J            ...    681
   # of shells in Aux-J                     ...    199
   Maximum angular momentum in Aux-J        ...      4
Auxiliary J/K fitting basis                 ... NOT available
Auxiliary Correlation fitting basis         ... NOT available
Auxiliary 'external' fitting basis          ... NOT available
Integral threshold                          ...     2.500000e-11
Primitive cut-off                           ...     2.500000e-12
Primitive pair pre-selection threshold      ...     2.500000e-12

Calculating pre-screening integrals         ... done (  0.1 sec) Dimension = 87
Organizing shell pair data                  ... done (  0.1 sec)
Shell pair information
Total number of shell pairs                 ...      3828
Shell pairs after pre-screening             ...      3047
Total number of primitive shell pairs       ...     18951
Primitive shell pairs kept                  ...      9673
          la=0 lb=0:    721 shell pairs
          la=1 lb=0:    930 shell pairs
          la=1 lb=1:    329 shell pairs
          la=2 lb=0:    474 shell pairs
          la=2 lb=1:    314 shell pairs
          la=2 lb=2:     84 shell pairs
          la=3 lb=0:     99 shell pairs
          la=3 lb=1:     61 shell pairs
          la=3 lb=2:     30 shell pairs
          la=3 lb=3:      5 shell pairs

Calculating one electron integrals          ... done (  0.0 sec)
Calculating RI/J V-Matrix + Cholesky decomp.... done (  0.0 sec)
Calculating Nuclear repulsion               ... done (  0.0 sec) ENN=   1761.152348093701 Eh

SHARK setup successfully completed in   0.4 seconds

Maximum memory used throughout the entire GTOINT-calculation: 61.3 MB
-------------------------------------------------------------------------------
                                 ORCA SCF
-------------------------------------------------------------------------------

------------
SCF SETTINGS
------------
Hamiltonian:
 Density Functional     Method          .... DFT(GTOs)
 Exchange Functional    Exchange        .... Slater
   X-Alpha parameter    XAlpha          ....  0.666667
 Correlation Functional Correlation     .... VWN-5
 Gradients option       PostSCFGGA      .... off
   Density functional embedding theory  .... OFF
 RI-approximation to the Coulomb term is turned on
   Number of AuxJ basis functions       .... 681


General Settings:
 Integral files         IntName         .... inputAdvance_COMPLETE
 Hartree-Fock type      HFTyp           .... UHF
 Total Charge           Charge          ....    0
 Multiplicity           Mult            ....    2
 Number of Electrons    NEL             ....  145
 Basis Dimension        Dim             ....  215
 Nuclear Repulsion      ENuc            ....   1761.1523480937 Eh

Convergence Acceleration:
 DIIS                   CNVDIIS         .... on
   Start iteration      DIISMaxIt       ....    12
   Startup error        DIISStart       ....  0.200000
   # of expansion vecs  DIISMaxEq       ....     5
   Bias factor          DIISBfac        ....   1.050
   Max. coefficient     DIISMaxC        ....  10.000
 Trust-Rad. Augm. Hess. CNVTRAH         .... auto
   Auto Start mean grad. ratio tolernc. ....  1.125000
   Auto Start start iteration           ....    20
   Auto Start num. interpolation iter.  ....    10
   Max. Number of Micro iterations      ....    16
   Max. Number of Macro iterations      .... Maxiter - #DIIS iter
   Number of Davidson start vectors     ....     2
   Converg. threshold I  (grad. norm)   ....   1.000e-05
   Converg. threshold II (energy diff.) ....   1.000e-08
   Grad. Scal. Fac. for Micro threshold ....   0.100
   Minimum threshold for Micro iter.    ....   0.010
   NR start threshold (gradient norm)   ....   0.001
   Initial trust radius                 ....   0.400
   Minimum AH scaling param. (alpha)    ....   1.000
   Maximum AH scaling param. (alpha)    .... 1000.000
   Orbital update algorithm             .... Taylor
   White noise on init. David. guess    .... on
   Maximum white noise                  ....   0.010
   Quad. conv. algorithm                .... NR
 SOSCF                  CNVSOSCF        .... off
 Level Shifting         CNVShift        .... on
   Level shift para.    LevelShift      ....    0.2500
   Turn off err/grad.   ShiftErr        ....    0.0010
 Zerner damping         CNVZerner       .... off
 Static damping         CNVDamp         .... on
   Fraction old density DampFac         ....    0.7000
   Max. Damping (<1)    DampMax         ....    0.9800
   Min. Damping (>=0)   DampMin         ....    0.0000
   Turn off err/grad.   DampErr         ....    0.1000
 Fernandez-Rico         CNVRico         .... off

SCF Procedure:
 Maximum # iterations   MaxIter         ....   500
 SCF integral mode      SCFMode         .... Direct
   Integral package                     .... SHARK and LIBINT hybrid scheme
 Reset frequency        DirectResetFreq ....    20
 Integral Threshold     Thresh          ....  2.500e-11 Eh
 Primitive CutOff       TCut            ....  2.500e-12 Eh

Convergence Tolerance:
 Convergence Check Mode ConvCheckMode   .... Total+1el-Energy
 Convergence forced     ConvForced      .... 0
 Energy Change          TolE            ....  1.000e-08 Eh
 1-El. energy change                    ....  1.000e-05 Eh
 DIIS Error             TolErr          ....  5.000e-07


Diagonalization of the overlap matrix:
Smallest eigenvalue                        ... 1.260e-02
Time for diagonalization                   ...    0.009 sec
Threshold for overlap eigenvalues          ... 1.000e-08
Number of eigenvalues below threshold      ... 0
Time for construction of square roots      ...    0.004 sec
Total time needed                          ...    0.014 sec

Time for model grid setup =    0.438 sec

------------------------------
INITIAL GUESS: MODEL POTENTIAL
------------------------------
Loading Hartree-Fock densities                     ... done
Calculating cut-offs                               ... done
Initializing the effective Hamiltonian             ... done
Setting up the integral package (SHARK)            ... done
Starting the Coulomb interaction                   ... done (   0.3 sec)
Reading the grid                                   ... done
Mapping shells                                     ... done
Starting the XC term evaluation                    ... done (   0.3 sec)
  promolecular density results
     # of electrons  =    144.999277441
     EX              =   -215.863709819
     EC              =    -11.357592917
     EX+EC           =   -227.221302736
Transforming the Hamiltonian                       ... done (   0.0 sec)
Diagonalizing the Hamiltonian                      ... done (   0.0 sec)
Back transforming the eigenvectors                 ... done (   0.0 sec)
Now organizing SCF variables                       ... done
                      ------------------
                      INITIAL GUESS DONE (   1.0 sec)
                      ------------------
-------------------
DFT GRID GENERATION
-------------------

General Integration Accuracy     IntAcc      ... 4.388
Radial Grid Type                 RadialGrid  ... OptM3 with GC (2021)
Angular Grid (max. ang.)         AngularGrid ... 4 (Lebedev-302)
Angular grid pruning method      GridPruning ... 4 (adaptive)
Weight generation scheme         WeightScheme... Becke
Basis function cutoff            BFCut       ... 1.0000e-11
Integration weight cutoff        WCut        ... 1.0000e-14
Angular grids for H and He will be reduced by one unit
Partially contracted basis set               ... off
Rotationally invariant grid construction     ... off

Total number of grid points                  ...    88782
Total number of batches                      ...     1394
Average number of points per batch           ...       63
Average number of grid points per atom       ...     6829
Time for grid setup =    1.443 sec


--------------------
CPCM SOLVATION MODEL
--------------------
CPCM parameters:
  Epsilon                                         ...      80.4000
  Refrac                                          ...       1.3300
  Rsolv                                           ...       1.3000
  Surface type                                    ... GAUSSIAN VDW
  Epsilon function type                           ...        COSMO
Radii:
 Radius for O  used is    3.4469 Bohr (=   1.8240 Ang.)
 Radius for Co used is    4.5353 Bohr (=   2.4000 Ang.)
 Radius for Mn used is    4.5353 Bohr (=   2.4000 Ang.)
 Radius for H  used is    2.4944 Bohr (=   1.3200 Ang.)
Calculating surface                               ...        done! (  0.0s)
GEPOL surface points                              ...          815
GEPOL Volume                                      ...    1387.9926
GEPOL Surface-area                                ...     733.3403
Calculating surface distance matrix               ...        done! (  0.0s)
Performing Cholesky decomposition & store         ...        done! (  0.0s)
Overall time for CPCM initialization              ...                 0.0s
--------------
SCF ITERATIONS
--------------
ITER       Energy         Delta-E        Max-DP      RMS-DP      [F,P]     Damp
               ***  Starting incremental Fock matrix formation  ***
  0  -4502.8684769718   0.000000000000 0.90700958  0.00855428  0.3985384 0.7000
  1  -4504.9979206478  -2.129443676041 0.17551247  0.00221572  0.1031187 0.7000
                               ***Turning on DIIS***
  2  -4505.4102464593  -0.412325811461 0.18025602  0.00296700  0.1124219 0.7000
  3  -4504.5768684934   0.833377965946 0.12347905  0.00196003  0.2369815 0.7000
  4  -4502.6158295545   1.961038938848 0.10115458  0.00138793  0.3827937 0.7000
  5  -4501.4265155414   1.189314013129 0.07509488  0.00104808  0.4904361 0.7000
  6  -4500.9601243012   0.466391240156 0.05476649  0.00083899  0.5882868 0.7000
  7  -4500.8743912506   0.085733050576 0.09619765  0.00178840  0.6558213 0.7000
  8  -4502.3425329914  -1.468141740716 0.19029529  0.00336707  0.6269068 0.7000
  9  -4505.3169337894  -2.974400798048 0.13388387  0.00207193  0.2217851 0.7000
 10  -4505.3863202101  -0.069386420715 0.09101883  0.00154454  0.2363591 0.7000
 11  -4505.0086417980   0.377678412132 0.05796818  0.00128841  0.2003468 0.7000
 12  -4504.8603598265   0.148281971527 0.05462491  0.00116417  0.2223020 0.7000
 13  -4505.2457724131  -0.385412586643 0.04863508  0.00094884  0.2279873 0.7000
 14  -4505.4653564741  -0.219584060967 0.13970426  0.00183310  0.2068528 0.7000
 15  -4505.7233298804  -0.257973406273 0.13377080  0.00198760  0.2404333 0.7000
 16  -4505.4000998010   0.323230079373 0.09983228  0.00161730  0.2129091 0.7000
 17  -4504.4575867035   0.942513097497 0.06193401  0.00124729  0.3856281 0.7000
 18  -4503.6654462691   0.792140434341 0.06506090  0.00122622  0.5039674 0.7000
 19  -4503.5702403706   0.095205898554 0.10263383  0.00170145  0.5107527 0.7000
               *** Restarting incremental Fock matrix formation ***
                                   *** Resetting DIIS ***

 WARNING: the maximum gradient error descreased on average only by a factor   0.9
          during the last 20 iterations

                      *** Initiating the TRAH-SCF procedure ***


TRAH GRID
---------

General Integration Accuracy     IntAcc      ... 3.467
Radial Grid Type                 RadialGrid  ... OptM3 with GC (2021)
Angular Grid (max. ang.)         AngularGrid ... 1 (Lebedev-50)
Angular grid pruning method      GridPruning ... 4 (adaptive)
Weight generation scheme         WeightScheme... Becke
Basis function cutoff            BFCut       ... 1.0000e-11
Integration weight cutoff        WCut        ... 1.0000e-14
Angular grids for H and He will be reduced by one unit
Partially contracted basis set               ... off
Rotationally invariant grid construction     ... off

Total number of grid points                  ...    21252
Total number of batches                      ...      339
Average number of points per batch           ...       62
Average number of grid points per atom       ...     1635

 --------------------------------------------------------------------------------------------
   Iter.        energy            ||Error||_2        Shift      TRadius  Mac/Mic        Rej.
 --------------------------------------------------------------------------------------------
WARNING: 1019 diagonal Hessian elements are negative!
    0      -4502.012108336176     3.598472e+00                     0.400 (TRAH MAcro)   No
WARNING : negative HOMO - LUMO gap : (op = alpha) -2.261873
WARNING : negative HOMO - LUMO gap : (op =  beta) -2.308108
    0     dE    -2.443216e+00     6.562553e-01    -6.2742e+00      0.400 (TRAH MIcro)
    0     dE    -2.480473e+00     3.263957e-01    -6.6807e+00      0.400 (TRAH MIcro)
    0     dE    -2.483703e+00     2.295189e-01    -6.7114e+00      0.400 (TRAH MIcro)
    0     dE    -2.487039e+00     4.718932e-02    -6.7220e+00      0.400 (TRAH MIcro)
    0     dE    -2.487225e+00     1.753441e-02    -6.7224e+00      0.400 (TRAH MIcro)
    0     dE    -2.487232e+00     9.139177e-03    -6.7223e+00      0.400 (TRAH MIcro)
WARNING: 608 diagonal Hessian elements are negative!
    1      -4504.438121083115     2.466351e+00                     0.480 (TRAH MAcro)   No
WARNING : negative HOMO - LUMO gap : (op = alpha) -1.451816
WARNING : negative HOMO - LUMO gap : (op =  beta) -1.479523
    1     dE    -1.627221e+00     7.248710e-01    -1.9247e+00      0.480 (TRAH MIcro)
    1     dE    -1.768454e+00     1.455996e-01    -2.9675e+00      0.480 (TRAH MIcro)
    1     dE    -1.771565e+00     6.072977e-02    -2.9883e+00      0.480 (TRAH MIcro)
    1     dE    -1.772276e+00     2.005012e-02    -2.9894e+00      0.480 (TRAH MIcro)
    1     dE    -1.772346e+00     7.132847e-03    -2.9868e+00      0.480 (TRAH MIcro)
WARNING: 238 diagonal Hessian elements are negative!
    2      -4506.109855382767     1.139284e+00                     0.576 (TRAH MAcro)   No
WARNING : negative HOMO - LUMO gap : (op = alpha) -0.623435
WARNING : negative HOMO - LUMO gap : (op =  beta) -0.624276
    2     dE    -4.291165e-01     6.032476e-01    -3.8511e-01      0.338 (TRAH MIcro)
    2     dE    -6.938106e-01     3.157928e-01    -5.2810e-01      0.560 (TRAH MIcro)
    2     dE    -7.342688e-01     1.641855e-01    -6.2320e-01      0.576 (TRAH MIcro)
    2     dE    -7.449591e-01     9.699224e-02    -6.8627e-01      0.576 (TRAH MIcro)
    2     dE    -7.491272e-01     5.546577e-02    -7.2079e-01      0.576 (TRAH MIcro)
    2     dE    -7.506361e-01     5.125460e-02    -7.3813e-01      0.576 (TRAH MIcro)
    2     dE    -7.431608e-01     3.131573e-02    -7.6862e-01      0.566 (TRAH MIcro)
    2     dE    -7.481065e-01     1.355795e-02    -7.6909e-01      0.571 (TRAH MIcro)
    2     dE    -7.500204e-01     9.929211e-03    -7.6922e-01      0.573 (TRAH MIcro)
WARNING: 26 diagonal Hessian elements are negative!
    3      -4506.734617845258     2.229443e-01                     0.691 (TRAH MAcro)   No
WARNING : negative HOMO - LUMO gap : (op = alpha) -0.055257
WARNING : negative HOMO - LUMO gap : (op =  beta) -0.084008
    3     dE    -2.675594e-02     5.022507e-01    -2.6386e-02      0.118 (TRAH MIcro)
    3     dE    -3.723952e-02     5.500756e-01    -3.5984e-02      0.187 (TRAH MIcro)
    3     dE    -6.230279e-02     3.095876e-01    -5.4026e-02      0.391 (TRAH MIcro)
    3     dE    -6.945289e-02     1.057064e-01    -5.8097e-02      0.442 (TRAH MIcro)
    3     dE    -6.984251e-02     6.618947e-02    -5.8614e-02      0.438 (TRAH MIcro)
    3     dE    -6.985838e-02     3.535405e-02    -5.9043e-02      0.428 (TRAH MIcro)
    3     dE    -6.982509e-02     1.996126e-02    -5.9290e-02      0.422 (TRAH MIcro)
    3     dE    -6.988737e-02     2.897500e-02    -5.9606e-02      0.415 (TRAH MIcro)
    3     dE    -7.072084e-02     4.327451e-02    -6.0208e-02      0.418 (TRAH MIcro)
    3     dE    -7.191666e-02     5.287007e-02    -6.0687e-02      0.430 (TRAH MIcro)
    3     dE    -7.410983e-02     2.129472e-02    -6.1324e-02      0.457 (TRAH MIcro)
    3     dE    -7.457358e-02     1.612420e-02    -6.1436e-02      0.462 (TRAH MIcro)
    3     dE    -7.514284e-02     1.704072e-02    -6.1570e-02      0.470 (TRAH MIcro)
    3     dE    -7.543207e-02     1.614912e-02    -6.1640e-02      0.473 (TRAH MIcro)
WARNING: 3 diagonal Hessian elements are negative!
    4      -4506.807180250364     3.784239e-02                     0.829 (TRAH MAcro)   No
WARNING : negative HOMO - LUMO gap : (op = alpha) -0.011444
WARNING : negative HOMO - LUMO gap : (op =  beta) -0.018671
    4     dE    -8.358444e-05     1.368043e-01    -8.3584e-05      0.002 (TRAH MIcro)
    4     dE    -1.270541e-03     7.883741e-02    -1.2456e-03      0.142 (TRAH MIcro)
    4     dE    -4.458634e-03     7.851110e-02    -3.8350e-03      0.403 (TRAH MIcro)
    4     dE    -7.376252e-03     1.257594e-01    -5.6226e-03      0.558 (TRAH MIcro)
    4     dE    -1.154294e-02     5.341947e-02    -7.7268e-03      0.703 (TRAH MIcro)
    4     dE    -1.501613e-02     7.428889e-02    -9.4003e-03      0.773 (TRAH MIcro)
    4     dE    -2.118862e-02     5.438082e-02    -1.2884e-02      0.829 (TRAH MIcro)
    4     dE    -2.287118e-02     5.845202e-02    -1.5929e-02      0.829 (TRAH MIcro)
    4     dE    -2.652009e-02     4.822739e-02    -2.3578e-02      0.829 (TRAH MIcro)
    4     dE    -2.794738e-02     3.657830e-02    -2.6552e-02      0.829 (TRAH MIcro)
    4     dE    -2.886219e-02     3.544543e-02    -2.7786e-02      0.829 (TRAH MIcro)
    4     dE    -3.006136e-02     1.581579e-02    -2.9236e-02      0.829 (TRAH MIcro)
    4     dE    -2.995454e-02     1.808388e-02    -2.9629e-02      0.823 (TRAH MIcro)
    4     dE    -2.992234e-02     8.010020e-03    -2.9818e-02      0.819 (TRAH MIcro)
WARNING: 2 diagonal Hessian elements are negative!
    5      -4506.828161915042     4.084161e-02                     0.829 (TRAH MAcro)   No
WARNING : negative HOMO - LUMO gap : (op = alpha) -0.005394
WARNING : negative HOMO - LUMO gap : (op =  beta) -0.004694
    5     dE    -3.736210e-04     1.645033e-01    -3.7359e-04      0.009 (TRAH MIcro)
    5     dE    -9.256232e-04     2.008961e-01    -9.1625e-04      0.101 (TRAH MIcro)
    5     dE    -3.034832e-03     7.740409e-02    -2.7485e-03      0.323 (TRAH MIcro)
    5     dE    -7.007782e-03     6.862430e-02    -5.0966e-03      0.612 (TRAH MIcro)
    5     dE    -8.584793e-03     5.858233e-02    -5.7928e-03      0.694 (TRAH MIcro)
    5     dE    -9.797454e-03     7.921140e-02    -6.2268e-03      0.757 (TRAH MIcro)
    5     dE    -1.210362e-02     5.093305e-02    -7.2206e-03      0.829 (TRAH MIcro)
    5     dE    -1.261663e-02     2.548387e-02    -7.7052e-03      0.829 (TRAH MIcro)
    5     dE    -1.288403e-02     4.674782e-02    -7.9898e-03      0.829 (TRAH MIcro)
    5     dE    -1.325700e-02     1.477766e-02    -8.6914e-03      0.829 (TRAH MIcro)
    5     dE    -1.333726e-02     9.059948e-03    -8.8497e-03      0.829 (TRAH MIcro)
    5     dE    -1.345820e-02     6.509107e-03    -8.7388e-03      0.829 (TRAH MIcro)
    5     dE    -1.347883e-02     9.788085e-03    -8.7572e-03      0.829 (TRAH MIcro)
    5     dE    -1.352314e-02     6.385675e-03    -8.6391e-03      0.829 (TRAH MIcro)
WARNING: 19 diagonal Hessian elements are negative!
    6      -4506.829780090699     1.272444e-01                     0.581 (TRAH MAcro)   No
WARNING : negative HOMO - LUMO gap : (op = alpha) -0.036146
WARNING : negative HOMO - LUMO gap : (op =  beta) -0.045696
    6     dE    -3.844157e-03     2.667790e-01    -3.8407e-03      0.030 (TRAH MIcro)
    6     dE    -5.991096e-03     2.564049e-02    -5.9382e-03      0.094 (TRAH MIcro)
    6     dE    -6.160780e-03     1.754831e-02    -6.1000e-03      0.100 (TRAH MIcro)
    6     dE    -6.340103e-03     1.643839e-02    -6.2632e-03      0.111 (TRAH MIcro)
    6     dE    -6.587912e-03     1.052996e-02    -6.4720e-03      0.134 (TRAH MIcro)
    6     dE    -6.620143e-03     7.506391e-03    -6.4977e-03      0.137 (TRAH MIcro)
    7      -4506.836286399007     1.029159e-02                     0.697 (TRAH MAcro)   No
WARNING : small    HOMO - LUMO gap : (op = alpha) 0.000463
WARNING : small    HOMO - LUMO gap : (op =  beta) 0.002563
    7     dE    -4.301658e-06     2.997921e-02    -4.3017e-06      0.000 (TRAH MIcro)
    7     dE    -1.929085e-04     2.010879e-02    -1.9230e-04      0.056 (TRAH MIcro)
    7     dE    -5.868140e-04     3.230942e-02    -5.7392e-04      0.150 (TRAH MIcro)
    7     dE    -1.104025e-03     1.898572e-02    -1.0187e-03      0.289 (TRAH MIcro)
    7     dE    -1.260646e-03     1.109991e-02    -1.1417e-03      0.323 (TRAH MIcro)
    7     dE    -1.292174e-03     8.380266e-03    -1.1657e-03      0.329 (TRAH MIcro)
    7     dE    -1.328391e-03     8.069282e-03    -1.1935e-03      0.336 (TRAH MIcro)
    7     dE    -1.376491e-03     5.902501e-03    -1.2268e-03      0.349 (TRAH MIcro)
    7     dE    -1.404566e-03     4.672425e-03    -1.2458e-03      0.357 (TRAH MIcro)
    7     dE    -1.455618e-03     4.556841e-03    -1.2710e-03      0.381 (TRAH MIcro)
    7     dE    -1.473046e-03     3.036115e-03    -1.2778e-03      0.391 (TRAH MIcro)
    7     dE    -1.489777e-03     1.821799e-03    -1.2840e-03      0.400 (TRAH MIcro)
    7     dE    -1.494343e-03     1.343315e-03    -1.2852e-03      0.403 (TRAH MIcro)
    7     dE    -1.496753e-03     1.167902e-03    -1.2862e-03      0.405 (TRAH MIcro)
WARNING: 3 diagonal Hessian elements are negative!
    8      -4506.836586433249     5.362325e-02                     0.488 (TRAH MAcro)   No
WARNING : negative HOMO - LUMO gap : (op = alpha) -0.010950
WARNING : small    HOMO - LUMO gap : (op =  beta) 0.015050
    8     dE    -7.680940e-04     4.064718e-02    -7.6794e-04      0.014 (TRAH MIcro)
    8     dE    -1.057858e-03     1.519604e-02    -1.0565e-03      0.036 (TRAH MIcro)
    8     dE    -1.103315e-03     7.723972e-03    -1.1017e-03      0.038 (TRAH MIcro)
    8     dE    -1.120672e-03     5.104328e-03    -1.1189e-03      0.040 (TRAH MIcro)
    9      -4506.837700124529     5.140607e-03                     0.585 (TRAH MAcro)   No
WARNING : small    HOMO - LUMO gap : (op = alpha) 0.002105
WARNING : small    HOMO - LUMO gap : (op =  beta) 0.004227
    9     dE    -4.364085e-06     1.851386e-02    -4.3641e-06      0.001 (TRAH MIcro)
    9     dE    -3.074469e-05     6.604772e-03    -3.0695e-05      0.040 (TRAH MIcro)
    9     dE    -6.171625e-05     8.266615e-03    -6.1298e-05      0.083 (TRAH MIcro)
    9     dE    -8.371909e-05     7.486131e-03    -8.2626e-05      0.115 (TRAH MIcro)
    9     dE    -9.807686e-05     7.234960e-03    -9.6299e-05      0.136 (TRAH MIcro)
    9     dE    -1.403717e-04     8.189586e-03    -1.3540e-04      0.192 (TRAH MIcro)
    9     dE    -1.652242e-04     5.476116e-03    -1.5726e-04      0.225 (TRAH MIcro)
    9     dE    -1.787709e-04     8.494500e-03    -1.6890e-04      0.242 (TRAH MIcro)
    9     dE    -1.936149e-04     6.405606e-03    -1.8073e-04      0.267 (TRAH MIcro)
    9     dE    -2.277497e-04     5.062328e-03    -2.0583e-04      0.326 (TRAH MIcro)
    9     dE    -2.388670e-04     2.709893e-03    -2.1367e-04      0.343 (TRAH MIcro)
    9     dE    -2.443139e-04     2.533038e-03    -2.1735e-04      0.352 (TRAH MIcro)
    9     dE    -2.529498e-04     1.648595e-03    -2.2293e-04      0.367 (TRAH MIcro)
    9     dE    -2.554352e-04     1.589785e-03    -2.2439e-04      0.372 (TRAH MIcro)
   10      -4506.837840464496     1.726125e-02                     0.585 (TRAH MAcro)   No
WARNING : small    HOMO - LUMO gap : (op = alpha) 0.003781
WARNING : small    HOMO - LUMO gap : (op =  beta) 0.005690
   10     dE    -6.553865e-05     4.529092e-02    -6.5538e-05      0.004 (TRAH MIcro)
   10     dE    -1.113526e-04     6.972302e-03    -1.1133e-04      0.014 (TRAH MIcro)
   10     dE    -1.201408e-04     4.319714e-03    -1.2011e-04      0.015 (TRAH MIcro)
   10     dE    -1.258805e-04     4.276031e-03    -1.2584e-04      0.018 (TRAH MIcro)
   10     dE    -1.387835e-04     3.172728e-03    -1.3867e-04      0.029 (TRAH MIcro)
   10     dE    -1.427955e-04     1.957693e-03    -1.4263e-04      0.034 (TRAH MIcro)
   10     dE    -1.440014e-04     1.807561e-03    -1.4382e-04      0.036 (TRAH MIcro)
   10     dE    -1.460207e-04     1.536491e-03    -1.4577e-04      0.041 (TRAH MIcro)
   11      -4506.837989203851     1.596362e-03                     0.702 (TRAH MAcro)   No
WARNING : small    HOMO - LUMO gap : (op = alpha) 0.002337
WARNING : small    HOMO - LUMO gap : (op =  beta) 0.003938
   11     dE    -1.324715e-07     5.214239e-03    -1.3248e-07      0.000 (TRAH MIcro)
   11     dE    -1.117923e-06     1.912651e-03    -1.1179e-06      0.004 (TRAH MIcro)
   11     dE    -1.762476e-06     1.435855e-03    -1.7624e-06      0.006 (TRAH MIcro)
   11     dE    -3.134413e-06     1.887376e-03    -3.1338e-06      0.014 (TRAH MIcro)
   11     dE    -6.599187e-06     2.306744e-03    -6.5890e-06      0.039 (TRAH MIcro)
   11     dE    -9.044382e-06     2.034104e-03    -9.0138e-06      0.058 (TRAH MIcro)
   11     dE    -1.007108e-05     1.925228e-03    -1.0029e-05      0.065 (TRAH MIcro)
   11     dE    -1.246913e-05     1.812999e-03    -1.2389e-05      0.080 (TRAH MIcro)
   11     dE    -1.397019e-05     1.326986e-03    -1.3861e-05      0.089 (TRAH MIcro)
   11     dE    -1.465797e-05     1.216485e-03    -1.4531e-05      0.093 (TRAH MIcro)
   11     dE    -1.533040e-05     7.290996e-04    -1.5177e-05      0.100 (TRAH MIcro)
   11     dE    -1.565535e-05     7.014789e-04    -1.5487e-05      0.104 (TRAH MIcro)
   11     dE    -1.590646e-05     3.239300e-04    -1.5731e-05      0.106 (TRAH MIcro)
   11     dE    -1.596070e-05     2.318571e-04    -1.5783e-05      0.106 (TRAH MIcro)
   12      -4506.838004254154     1.556896e-03                     0.843 (TRAH MAcro)   No
WARNING : small    HOMO - LUMO gap : (op = alpha) 0.002596
WARNING : small    HOMO - LUMO gap : (op =  beta) 0.003856
   12     dE    -4.825271e-07     5.248766e-03    -4.8253e-07      0.000 (TRAH MIcro)
   12     dE    -7.708273e-07     1.673192e-03    -7.7083e-07      0.001 (TRAH MIcro)
   12     dE    -9.241163e-07     6.060152e-04    -9.2411e-07      0.001 (TRAH MIcro)
   12     dE    -9.879976e-07     3.744792e-04    -9.8799e-07      0.002 (TRAH MIcro)
   12     dE    -1.063949e-06     3.092482e-04    -1.0639e-06      0.002 (TRAH MIcro)
   12     dE    -1.118972e-06     1.775948e-04    -1.1190e-06      0.003 (TRAH MIcro)
   12     dE    -1.129691e-06     1.695205e-04    -1.1297e-06      0.003 (TRAH MIcro)
   12     dE    -1.141775e-06     1.691639e-04    -1.1418e-06      0.003 (TRAH MIcro)
   12     dE    -1.157975e-06     1.132153e-04    -1.1580e-06      0.004 (TRAH MIcro)
   13      -4506.838005415720     1.133653e-04                           (NR   MAcro)
WARNING : small    HOMO - LUMO gap : (op = alpha) 0.002454
WARNING : small    HOMO - LUMO gap : (op =  beta) 0.003619
   13     dE    -4.266000e-09     7.527982e-05                           (NR   MIcro)
   13     dE    -6.461756e-09     6.988704e-05                           (NR   MIcro)
   13     dE    -1.006523e-08     7.955326e-05                           (NR   MIcro)
   13     dE    -1.374225e-08     8.189694e-05                           (NR   MIcro)
   13     dE    -1.700153e-08     7.561086e-05                           (NR   MIcro)
   13     dE    -1.933365e-08     7.631472e-05                           (NR   MIcro)
   13     dE    -2.331192e-08     7.421253e-05                           (NR   MIcro)
   13     dE    -2.507675e-08     5.643099e-05                           (NR   MIcro)
   13     dE    -2.629963e-08     4.635929e-05                           (NR   MIcro)
   13     dE    -2.765996e-08     2.882184e-05                           (NR   MIcro)
   13     dE    -2.810882e-08     1.829248e-05                           (NR   MIcro)
   13     dE    -2.854662e-08     1.328488e-05                           (NR   MIcro)
   13     dE    -2.868279e-08     1.521053e-05                           (NR   MIcro)
   13     dE    -2.893686e-08     1.033449e-05                           (NR   MIcro)
   13     dE    -2.897199e-08     9.268486e-06                           (NR   MIcro)
   14      -4506.838005444723     9.215254e-06                           (NR   MAcro)
WARNING : small    HOMO - LUMO gap : (op = alpha) 0.002459
WARNING : small    HOMO - LUMO gap : (op =  beta) 0.003618
   14     dE    -2.335004e-11     7.269435e-06                           (NR   MIcro)
   14     dE    -3.781072e-11     6.868251e-06                           (NR   MIcro)
   14     dE    -7.166833e-11     4.187407e-06                           (NR   MIcro)
   14     dE    -8.002158e-11     3.759902e-06                           (NR   MIcro)
   14     dE    -8.989117e-11     4.652368e-06                           (NR   MIcro)
   14     dE    -1.050051e-10     4.060961e-06                           (NR   MIcro)
   14     dE    -1.106024e-10     3.516474e-06                           (NR   MIcro)
   14     dE    -1.198929e-10     3.571910e-06                           (NR   MIcro)
   14     dE    -1.276945e-10     2.242918e-06                           (NR   MIcro)
   14     dE    -1.298135e-10     2.115539e-06                           (NR   MIcro)
   14     dE    -1.347113e-10     1.788249e-06                           (NR   MIcro)
   14     dE    -1.367632e-10     1.305783e-06                           (NR   MIcro)
   14     dE    -1.392163e-10     7.765992e-07                           (NR   MIcro)
   15      -4506.838005444856     7.802375e-07                           (NR   MAcro)
WARNING : small    HOMO - LUMO gap : (op = alpha) 0.002459
WARNING : small    HOMO - LUMO gap : (op =  beta) 0.003617

               *****************************************************
               *                     SUCCESS                       *
               *           SCF CONVERGED AFTER 195 CYCLES          *
               *****************************************************


----------------
TOTAL SCF ENERGY
----------------

Total Energy       :        -4506.83800544 Eh         -122637.29689 eV

Components:
Nuclear Repulsion  :         1761.15234809 Eh           47923.39177 eV
Electronic Energy  :        -6267.99035354 Eh         -170560.68866 eV
One Electron Energy:        -9755.19668401 Eh         -265452.39711 eV
Two Electron Energy:         3487.20633047 Eh           94891.70845 eV
CPCM Dielectric    :           -0.02857517 Eh              -0.77757 eV

Virial components:
Potential Energy   :        -9008.54454603 Eh         -245134.95952 eV
Kinetic Energy     :         4501.70654058 Eh          122497.66263 eV
Virial Ratio       :            2.00113989


DFT components:
N(Alpha)           :       72.999867521396 electrons
N(Beta)            :       71.999856128200 electrons
N(Total)           :      144.999723649596 electrons
E(X)               :     -216.034031494708 Eh       
E(C)               :      -11.371449686955 Eh       
E(XC)              :     -227.405481181663 Eh       
DFET-embed. en.    :        0.000000000000 Eh       
CPCM Solvation Model Properties:
Surface-charge          :           -0.00671117
Charge-correction       :            0.00014148 Eh               0.00385 eV
Free-energy (cav+disp)  :  This term is not implemented in the current solvation scheme

---------------
SCF CONVERGENCE
---------------

  Last Energy change         ...   -1.3279e-10  Tolerance :   1.0000e-08
  Last Orbital Gradient      ...    7.8024e-07  Tolerance :   1.0000e-05
  Last Orbital Rotation      ...    2.0761e-04

             **** THE GBW FILE WAS UPDATED (inputAdvance_COMPLETE.gbw) ****
             **** DENSITY inputAdvance_COMPLETE.scfp WAS UPDATED ****
             **** ENERGY FILE WAS UPDATED (inputAdvance_COMPLETE.en.tmp) ****
----------------------
UHF SPIN CONTAMINATION
----------------------

Warning: in a DFT calculation there is little theoretical justification to 
         calculate <S**2> as in Hartree-Fock theory. We will do it anyways
         but you should keep in mind that the values have only limited relevance

Expectation value of <S**2>     :     3.022264
Ideal value S*(S+1) for S=0.5   :     0.750000
Deviation                       :     2.272264

             **** THE GBW FILE WAS UPDATED (inputAdvance_COMPLETE.gbw) ****
             **** DENSITY inputAdvance_COMPLETE.scfp WAS UPDATED ****
----------------
ORBITAL ENERGIES
----------------
                 SPIN UP ORBITALS
  NO   OCC          E(Eh)            E(eV) 
   0   1.0000    -275.650682     -7500.8364 
   1   1.0000    -275.648063     -7500.7651 
   2   1.0000    -233.751316     -6360.6967 
   3   1.0000     -32.465795      -883.4392 
   4   1.0000     -32.441329      -882.7735 
   5   1.0000     -28.250047      -768.7229 
   6   1.0000     -28.249680      -768.7129 
   7   1.0000     -28.247153      -768.6441 
   8   1.0000     -28.236277      -768.3482 
   9   1.0000     -28.234306      -768.2945 
  10   1.0000     -28.218188      -767.8559 
  11   1.0000     -26.926717      -732.7132 
  12   1.0000     -23.144957      -629.8063 
  13   1.0000     -23.143279      -629.7606 
  14   1.0000     -23.141815      -629.7208 
  15   1.0000     -18.708967      -509.0969 
  16   1.0000     -18.706784      -509.0375 
  17   1.0000     -18.699982      -508.8524 
  18   1.0000     -18.696538      -508.7587 
  19   1.0000     -18.694835      -508.7123 
  20   1.0000     -18.694421      -508.7011 
  21   1.0000     -18.681699      -508.3549 
  22   1.0000     -18.669551      -508.0243 
  23   1.0000      -3.710306      -100.9626 
  24   1.0000      -3.662237       -99.6545 
  25   1.0000      -3.062498       -83.3348 
  26   1.0000      -2.452400       -66.7332 
  27   1.0000      -2.446416       -66.5704 
  28   1.0000      -2.443135       -66.4811 
  29   1.0000      -2.410220       -65.5854 
  30   1.0000      -2.409380       -65.5626 
  31   1.0000      -2.381653       -64.8081 
  32   1.0000      -1.989424       -54.1350 
  33   1.0000      -1.975777       -53.7636 
  34   1.0000      -1.972041       -53.6620 
  35   1.0000      -0.908828       -24.7305 
  36   1.0000      -0.906960       -24.6796 
  37   1.0000      -0.880033       -23.9469 
  38   1.0000      -0.867278       -23.5998 
  39   1.0000      -0.864454       -23.5230 
  40   1.0000      -0.850099       -23.1324 
  41   1.0000      -0.844314       -22.9749 
  42   1.0000      -0.841381       -22.8951 
  43   1.0000      -0.472929       -12.8690 
  44   1.0000      -0.467534       -12.7222 
  45   1.0000      -0.443553       -12.0697 
  46   1.0000      -0.432404       -11.7663 
  47   1.0000      -0.421079       -11.4582 
  48   1.0000      -0.415218       -11.2986 
  49   1.0000      -0.413109       -11.2413 
  50   1.0000      -0.411092       -11.1864 
  51   1.0000      -0.409200       -11.1349 
  52   1.0000      -0.397998       -10.8301 
  53   1.0000      -0.393127       -10.6975 
  54   1.0000      -0.384817       -10.4714 
  55   1.0000      -0.379878       -10.3370 
  56   1.0000      -0.371999       -10.1226 
  57   1.0000      -0.365516        -9.9462 
  58   1.0000      -0.358980        -9.7683 
  59   1.0000      -0.355775        -9.6811 
  60   1.0000      -0.347154        -9.4465 
  61   1.0000      -0.338521        -9.2116 
  62   1.0000      -0.334595        -9.1048 
  63   1.0000      -0.321065        -8.7366 
  64   1.0000      -0.320066        -8.7094 
  65   1.0000      -0.314818        -8.5666 
  66   1.0000      -0.309792        -8.4299 
  67   1.0000      -0.296949        -8.0804 
  68   1.0000      -0.291100        -7.9212 
  69   1.0000      -0.285565        -7.7706 
  70   1.0000      -0.276565        -7.5257 
  71   1.0000      -0.269213        -7.3257 
  72   1.0000      -0.259946        -7.0735 
  73   0.0000      -0.257487        -7.0066 
  74   0.0000      -0.251655        -6.8479 
  75   0.0000      -0.241340        -6.5672 
  76   0.0000      -0.233545        -6.3551 
  77   0.0000      -0.220132        -5.9901 
  78   0.0000      -0.212534        -5.7833 
  79   0.0000      -0.205365        -5.5883 
  80   0.0000      -0.186477        -5.0743 
  81   0.0000      -0.167587        -4.5603 
  82   0.0000      -0.042943        -1.1685 
  83   0.0000      -0.024315        -0.6616 
  84   0.0000       0.027395         0.7455 
  85   0.0000       0.074230         2.0199 
  86   0.0000       0.080743         2.1971 
  87   0.0000       0.109662         2.9841 
  88   0.0000       0.115249         3.1361 
  89   0.0000       0.138169         3.7598 
  90   0.0000       0.152856         4.1594 
  91   0.0000       0.169926         4.6239 
  92   0.0000       0.189977         5.1695 
  93   0.0000       0.195541         5.3209 
  94   0.0000       0.200848         5.4654 
  95   0.0000       0.236885         6.4460 
  96   0.0000       0.241899         6.5824 
  97   0.0000       0.352849         9.6015 
  98   0.0000       0.474015        12.8986 
  99   0.0000       0.556274        15.1370 
 100   0.0000       0.562863        15.3163 
 101   0.0000       0.644322        17.5329 
 102   0.0000       0.682038        18.5592 
 103   0.0000       0.730915        19.8892 
 104   0.0000       0.736879        20.0515 
 105   0.0000       0.766471        20.8567 
 106   0.0000       0.792884        21.5755 
 107   0.0000       0.806517        21.9464 
 108   0.0000       0.812738        22.1157 
 109   0.0000       0.831762        22.6334 
 110   0.0000       0.833687        22.6858 
 111   0.0000       0.836887        22.7729 
 112   0.0000       0.849192        23.1077 
 113   0.0000       0.856900        23.3174 
 114   0.0000       0.867116        23.5954 
 115   0.0000       0.877354        23.8740 
 116   0.0000       0.884336        24.0640 
 117   0.0000       0.923785        25.1375 
 118   0.0000       0.932990        25.3879 
 119   0.0000       0.943838        25.6831 
 120   0.0000       0.956116        26.0172 
 121   0.0000       0.964809        26.2538 
 122   0.0000       0.985548        26.8181 
 123   0.0000       1.000884        27.2354 
 124   0.0000       1.006318        27.3833 
 125   0.0000       1.047782        28.5116 
 126   0.0000       1.058410        28.8008 
 127   0.0000       1.079062        29.3628 
 128   0.0000       1.082037        29.4437 
 129   0.0000       1.090321        29.6691 
 130   0.0000       1.097354        29.8605 
 131   0.0000       1.133869        30.8541 
 132   0.0000       1.142571        31.0909 
 133   0.0000       1.177865        32.0513 
 134   0.0000       1.184733        32.2382 
 135   0.0000       1.201838        32.7037 
 136   0.0000       1.216825        33.1115 
 137   0.0000       1.230479        33.4830 
 138   0.0000       1.248904        33.9844 
 139   0.0000       1.299734        35.3676 
 140   0.0000       1.342063        36.5194 
 141   0.0000       1.368679        37.2436 
 142   0.0000       1.372102        37.3368 
 143   0.0000       1.423259        38.7289 
 144   0.0000       1.441952        39.2375 
 145   0.0000       1.453821        39.5605 
 146   0.0000       1.493977        40.6532 
 147   0.0000       1.507251        41.0144 
 148   0.0000       1.535743        41.7897 
 149   0.0000       1.582449        43.0606 
 150   0.0000       1.655684        45.0534 
 151   0.0000       1.674562        45.5672 
 152   0.0000       2.055888        55.9436 
 153   0.0000       2.060937        56.0809 
 154   0.0000       2.450309        66.6763 
 155   0.0000       2.454316        66.7853 
 156   0.0000       2.459361        66.9226 
 157   0.0000       2.459694        66.9317 
 158   0.0000       2.464856        67.0721 
 159   0.0000       2.468380        67.1680 
 160   0.0000       2.469552        67.1999 
 161   0.0000       2.474073        67.3229 
 162   0.0000       2.482208        67.5443 
 163   0.0000       2.486825        67.6699 
 164   0.0000       2.492361        67.8206 
 165   0.0000       2.509070        68.2753 
 166   0.0000       2.517467        68.5038 
 167   0.0000       2.536624        69.0250 
 168   0.0000       2.543404        69.2095 
 169   0.0000       2.553196        69.4760 
 170   0.0000       2.557285        69.5873 
 171   0.0000       2.572991        70.0146 
 172   0.0000       2.590046        70.4787 
 173   0.0000       2.601310        70.7852 
 174   0.0000       2.608819        70.9896 
 175   0.0000       2.613978        71.1300 
 176   0.0000       2.621474        71.3339 
 177   0.0000       2.629121        71.5420 
 178   0.0000       2.651200        72.1428 
 179   0.0000       2.668191        72.6052 
 180   0.0000       2.750201        74.8368 
 181   0.0000       2.775226        75.5177 
 182   0.0000       2.789103        75.8953 
 183   0.0000       2.797899        76.1347 
 184   0.0000       2.801018        76.2196 
 185   0.0000       2.806297        76.3632 
 186   0.0000       2.819100        76.7116 
 187   0.0000       2.831293        77.0434 
 188   0.0000       2.855319        77.6972 
 189   0.0000       2.892526        78.7096 
 190   0.0000       2.914240        79.3005 
 191   0.0000       2.917970        79.4020 
 192   0.0000       3.277562        89.1870 
 193   0.0000       3.278743        89.2191 
 194   0.0000       3.294939        89.6599 
 195   0.0000       3.321394        90.3797 
 196   0.0000       3.362299        91.4928 
 197   0.0000       3.448542        93.8396 
 198   0.0000       3.473760        94.5258 
 199   0.0000       3.537683        96.2652 
 200   0.0000       3.542485        96.3959 
 201   0.0000       4.580654       124.6459 
 202   0.0000       4.587998       124.8458 
 203   0.0000       4.595884       125.0604 
 204   0.0000       4.610684       125.4631 
 205   0.0000       4.613874       125.5499 
 206   0.0000       4.620726       125.7363 
 207   0.0000       4.626735       125.8999 
 208   0.0000       4.629623       125.9784 
 209   0.0000       4.644495       126.3831 
 210   0.0000       4.661141       126.8361 
 211   0.0000       4.668190       127.0279 
 212   0.0000       4.679883       127.3461 
 213   0.0000       4.686652       127.5303 
 214   0.0000       4.713280       128.2549 

                 SPIN DOWN ORBITALS
  NO   OCC          E(Eh)            E(eV) 
   0   1.0000    -275.649801     -7500.8124 
   1   1.0000    -275.648140     -7500.7672 
   2   1.0000    -233.752140     -6360.7191 
   3   1.0000     -32.443836      -882.8417 
   4   1.0000     -32.426424      -882.3678 
   5   1.0000     -28.238290      -768.4029 
   6   1.0000     -28.236610      -768.3572 
   7   1.0000     -28.220996      -767.9323 
   8   1.0000     -28.220226      -767.9114 
   9   1.0000     -28.219666      -767.8962 
  10   1.0000     -28.214981      -767.7687 
  11   1.0000     -26.964468      -733.7405 
  12   1.0000     -23.174208      -630.6023 
  13   1.0000     -23.173205      -630.5750 
  14   1.0000     -23.170219      -630.4937 
  15   1.0000     -18.700386      -508.8634 
  16   1.0000     -18.698801      -508.8202 
  17   1.0000     -18.697960      -508.7973 
  18   1.0000     -18.691835      -508.6307 
  19   1.0000     -18.691367      -508.6180 
  20   1.0000     -18.688119      -508.5296 
  21   1.0000     -18.682690      -508.3818 
  22   1.0000     -18.659565      -507.7526 
  23   1.0000      -3.667067       -99.7860 
  24   1.0000      -3.634639       -98.9036 
  25   1.0000      -3.146679       -85.6255 
  26   1.0000      -2.416599       -65.7590 
  27   1.0000      -2.413712       -65.6805 
  28   1.0000      -2.384982       -64.8987 
  29   1.0000      -2.381221       -64.7963 
  30   1.0000      -2.375085       -64.6293 
  31   1.0000      -2.365650       -64.3726 
  32   1.0000      -2.061870       -56.1063 
  33   1.0000      -2.061218       -56.0886 
  34   1.0000      -2.059454       -56.0406 
  35   1.0000      -0.910625       -24.7794 
  36   1.0000      -0.889424       -24.2025 
  37   1.0000      -0.872047       -23.7296 
  38   1.0000      -0.862473       -23.4691 
  39   1.0000      -0.847483       -23.0612 
  40   1.0000      -0.839125       -22.8337 
  41   1.0000      -0.834368       -22.7043 
  42   1.0000      -0.829095       -22.5608 
  43   1.0000      -0.470342       -12.7986 
  44   1.0000      -0.452880       -12.3235 
  45   1.0000      -0.440777       -11.9942 
  46   1.0000      -0.419590       -11.4176 
  47   1.0000      -0.409994       -11.1565 
  48   1.0000      -0.407205       -11.0806 
  49   1.0000      -0.401826       -10.9342 
  50   1.0000      -0.397634       -10.8202 
  51   1.0000      -0.395863       -10.7720 
  52   1.0000      -0.390092       -10.6149 
  53   1.0000      -0.381748       -10.3879 
  54   1.0000      -0.374528       -10.1914 
  55   1.0000      -0.371602       -10.1118 
  56   1.0000      -0.367328        -9.9955 
  57   1.0000      -0.360650        -9.8138 
  58   1.0000      -0.357972        -9.7409 
  59   1.0000      -0.352955        -9.6044 
  60   1.0000      -0.336592        -9.1591 
  61   1.0000      -0.332007        -9.0344 
  62   1.0000      -0.320450        -8.7199 
  63   1.0000      -0.315727        -8.5914 
  64   1.0000      -0.311727        -8.4825 
  65   1.0000      -0.305412        -8.3107 
  66   1.0000      -0.302946        -8.2436 
  67   1.0000      -0.297245        -8.0884 
  68   1.0000      -0.281682        -7.6650 
  69   1.0000      -0.275939        -7.5087 
  70   1.0000      -0.273696        -7.4477 
  71   1.0000      -0.265720        -7.2306 
  72   0.0000      -0.262103        -7.1322 
  73   0.0000      -0.254341        -6.9210 
  74   0.0000      -0.241830        -6.5805 
  75   0.0000      -0.240049        -6.5321 
  76   0.0000      -0.232976        -6.3396 
  77   0.0000      -0.225938        -6.1481 
  78   0.0000      -0.222590        -6.0570 
  79   0.0000      -0.212930        -5.7941 
  80   0.0000      -0.202593        -5.5128 
  81   0.0000      -0.198072        -5.3898 
  82   0.0000      -0.039929        -1.0865 
  83   0.0000      -0.020407        -0.5553 
[...]
      3      -0.086002  -0.069872  -0.132097   0.013163   0.001985  -0.011847
      4       0.041766   0.029600   0.008290   0.041824   0.055304  -0.143509
      5       0.054809   0.045629  -0.047909  -0.015414  -0.065367   0.084786
      6       0.075710   0.080384  -0.132326   0.005517  -0.022243   0.007311
      7      -0.009318  -0.005999   0.013954  -0.022650   0.039849   0.347676
      8      -0.007242  -0.028275  -0.098225   0.002049   0.007126   0.175993
      9       0.016265  -0.088394   0.348619  -0.004828   0.025423  -0.010806
     10      -0.048983   0.028748   0.065214  -0.042439  -0.208559  -0.055224
     11      -0.098753   0.059071   0.155984   0.020717   0.138022   0.070082
     12      -0.027970   0.026755   0.129548  -0.007653   0.037458   0.023750
     13       0.044496  -0.059228   0.000175  -0.017473  -0.104522  -0.271745
     14      -0.047674   0.056523   0.076947  -0.016812  -0.086687  -0.166386
     15       0.023152  -0.011308   0.100975  -0.028642  -0.100086   0.185750
     16      -0.100523   0.080278  -0.033889   0.001360   0.008473   0.039741
     17       0.039570  -0.027203   0.079691   0.008740   0.115209  -0.159508
     18       0.001025   0.011312   0.071244   0.022960   0.015774  -0.117413
     19       0.085217   0.083979   0.013318   0.002348   0.004246  -0.004666
     20      -0.002078  -0.002232   0.038685  -0.065921   0.089488  -0.231280
     21       0.003155   0.002531   0.044363  -0.028287   0.009893   0.094795
     22      -0.050133  -0.042169  -0.011537  -0.002291  -0.018875  -0.050305
     23       0.002645   0.003469   0.012096   0.012408   0.001114  -0.040542
     24       0.010960  -0.001673  -0.038572  -0.007278   0.007363   0.009861
     25       0.011952   0.001787  -0.036649   0.004135   0.019832   0.002396
     26      -0.011929   0.000855   0.039484  -0.004840  -0.001580  -0.032450
     27       0.041275  -0.037699  -0.054451   0.010974   0.040217  -0.004596
     28      -0.048598   0.042408  -0.004743  -0.006215  -0.019261  -0.008590
     29      -0.057101   0.061960  -0.057799   0.015169   0.050242  -0.007192
     30      -0.026951   0.022931  -0.035958   0.003710  -0.019817  -0.040870
     31       0.025381  -0.022770   0.027315   0.009343   0.058578   0.058710
     32       0.031891  -0.026807  -0.028027  -0.004582  -0.052059   0.058201
     33      -0.278824   0.297786  -0.489765   0.269529   0.620854   0.092641
     34       0.389919  -0.380827  -0.154668   0.181069   0.400152   0.008069
     35       0.499293  -0.490747   0.060506   0.031036   0.080004  -0.045201
     36      -0.043767  -0.029933   0.138726   0.171872  -0.081653   0.018708
     37      -0.661637  -0.672112  -0.178375  -0.016309   0.008005   0.059933
     38      -0.047666  -0.017227   0.555102   0.919001  -0.551237   0.619899
                 30         31         32         33         34         35    
      0       0.037337   0.007175   0.175882  -0.209823   0.173841   0.158096
      1      -0.013568   0.010786  -0.048092   0.045300  -0.036098  -0.023496
      2      -0.012830   0.007520  -0.134286   0.204573  -0.212869  -0.173068
      3       0.030034   0.009270   0.036353   0.026242  -0.047172  -0.065354
      4       0.085055  -0.066026   0.310512   0.140441  -0.052023  -0.290880
      5      -0.062680   0.065380  -0.304215  -0.121104   0.009252   0.223411
      6       0.001356   0.006233  -0.002104   0.025252  -0.025151  -0.021845
      7       0.022372  -0.320348   0.247511   0.107053   0.118187   0.260152
      8       0.029943  -0.186066   0.136124   0.067780   0.033877   0.124529
      9      -0.018491   0.007911  -0.012918   0.032374   0.059457   0.054657
     10      -0.040810   0.141300   0.086356   0.259487   0.253308   0.264512
     11       0.005086  -0.055788  -0.047301  -0.121287  -0.109659  -0.132199
     12      -0.003057   0.031112  -0.000258   0.015233   0.044177   0.064924
     13      -0.090593  -0.322582  -0.028698   0.068421  -0.094308  -0.316621
     14      -0.072113  -0.218767  -0.026798   0.069739  -0.054387  -0.206942
     15      -0.021951   0.272300   0.248716  -0.108971  -0.012651  -0.344353
     16      -0.001367   0.031312   0.044010  -0.008912   0.000205  -0.027997
     17       0.008281  -0.162749  -0.190056   0.096675   0.071605   0.322489
     18       0.028323   0.157433   0.032271   0.177699  -0.201073   0.123899
     19       0.002775   0.002070   0.005679   0.007189  -0.008649   0.008830
     20       0.027056   0.230717   0.093543   0.205240  -0.227265   0.164196
     21      -0.026167  -0.037486  -0.058909  -0.007361   0.035888  -0.089141
     22      -0.020751   0.074572  -0.105973  -0.059331  -0.003167   0.011100
     23      -0.001180  -0.042704   0.030988  -0.073708   0.090880  -0.110498
     24       0.001779  -0.048980  -0.031210  -0.017786  -0.025635  -0.010240
     25       0.008019   0.045214  -0.053789  -0.059063  -0.023205   0.009071
     26       0.008194   0.036630   0.055093  -0.046689   0.030324  -0.023132
     27       0.131179   0.083565  -0.260602   0.190882   0.255370  -0.239093
     28       0.089125  -0.001775  -0.113823   0.037927   0.062673  -0.081792
     29       0.024715   0.059325  -0.105000   0.115984   0.146996  -0.121966
     30      -0.013192  -0.085070   0.023119  -0.028777  -0.084141   0.173625
     31       0.008920   0.022123   0.012193  -0.070921  -0.045928   0.037986
     32       0.007871   0.079675   0.083412  -0.032769  -0.021517   0.076813
     33      -0.759242   0.599619   0.383028   0.517910   0.528223  -0.216111
     34      -0.595717   0.286052   0.301897   0.337982   0.252187  -0.030998
     35      -0.063256   0.011318  -0.104337   0.182788   0.153172  -0.074453
     36       0.031228   0.108513  -0.039234   0.201044  -0.227202   0.105721
     37       0.009260  -0.066404   0.121507   0.069570   0.021195  -0.042887
     38       0.059430  -0.035711  -0.412740   0.371478  -0.425680   0.122992
                 36         37         38    
      0      -0.204635  -0.000024  -0.000120
      1       0.036817   0.000005   0.000073
      2       0.224412  -0.000016   0.000168
      3       0.093552  -0.000128   0.000069
      4       0.331146   0.000142   0.000209
      5      -0.243593  -0.000057  -0.000080
      6       0.033761  -0.000121   0.000025
      7      -0.358245  -0.000099  -0.000288
      8      -0.161177  -0.000043  -0.000051
      9       0.037935  -0.000022  -0.000028
     10       0.201071   0.000031  -0.000214
     11      -0.093998  -0.000020   0.000048
     12       0.058335  -0.000033  -0.000115
     13      -0.245666  -0.000042   0.000210
     14      -0.159000  -0.000171   0.000159
     15      -0.209405  -0.000190   0.000120
     16      -0.020527   0.000105  -0.000020
     17       0.221045   0.000021  -0.000205
     18      -0.178396   0.041164   0.045124
     19      -0.007931  -0.002165  -0.002335
     20      -0.235461  -0.006793  -0.007098
     21       0.136600   0.000248   0.000209
     22      -0.005863   0.000001   0.000000
     23       0.155104   0.000155   0.000070
     24      -0.124221   0.000029   0.000015
     25       0.012217  -0.000057   0.000017
     26      -0.079402  -0.000009  -0.000032
     27      -0.190869   0.017611  -0.016349
     28      -0.061143  -0.027733   0.025184
     29      -0.095638   0.031804  -0.029155
     30       0.137155   0.000229  -0.000115
     31       0.029198  -0.000007   0.000046
     32       0.071393   0.000189  -0.000133
     33      -0.190316  -0.289264   0.265112
     34      -0.067528   0.441541  -0.402999
     35      -0.088766  -0.513751   0.469948
     36      -0.159558  -0.664896  -0.727377
     37       0.013132   0.034227   0.037175
     38      -0.199991   0.101658   0.110242


-----------
IR SPECTRUM
-----------

 Mode   freq       eps      Int      T**2         TX        TY        TZ
       cm**-1   L/(mol*cm) km/mol    a.u.
----------------------------------------------------------------------------
  6:     49.53   0.000886    4.48  0.005584  ( 0.036040  0.037396 -0.053725)
  7:     65.29   0.000447    2.26  0.002134  ( 0.000391 -0.039610 -0.023777)
  8:     73.05   0.000944    4.77  0.004033  (-0.033494  0.009781  0.053065)
  9:     79.20   0.001644    8.31  0.006478  (-0.000563 -0.078685 -0.016926)
 10:    113.44   0.000247    1.25  0.000678  ( 0.012206  0.017068 -0.015426)
 11:    162.58   0.001713    8.66  0.003288  ( 0.035989 -0.044467 -0.004002)
 12:    206.66   0.000249    1.26  0.000376  (-0.013366 -0.010752  0.009031)
 13:    218.70   0.001600    8.09  0.002283  ( 0.043003  0.019877 -0.006234)
 14:    229.29   0.001451    7.33  0.001975  (-0.030503  0.014458 -0.028909)
 15:    261.20   0.014303   72.28  0.017088  ( 0.094891  0.014049  0.088807)
 16:    312.89   0.001318    6.66  0.001314  ( 0.015746  0.019157 -0.026448)
 17:    323.53   0.006114   30.90  0.005898  ( 0.031813  0.044021 -0.054293)
 18:    333.58   0.015435   78.00  0.014439  (-0.105471  0.033000 -0.047179)
 19:    355.69   0.026969  136.29  0.023661  ( 0.030376 -0.139375 -0.057555)
 20:    366.93   0.008135   41.11  0.006918  (-0.038898 -0.023571  0.069640)
 21:    385.49   0.003114   15.74  0.002521  (-0.041550  0.026815 -0.008682)
 22:    397.98   0.003637   18.38  0.002852  (-0.030786 -0.023380  0.036845)
 23:    425.16   0.011155   56.37  0.008188  (-0.023597 -0.062117 -0.061419)
 24:    439.01   0.008565   43.29  0.006089  (-0.039492 -0.033168  0.058557)
 25:    442.68   0.035244  178.11  0.024845  ( 0.025714 -0.137740 -0.072193)
 26:    495.71   0.007810   39.47  0.004917  (-0.033553 -0.032157  0.052504)
 27:    658.47   0.072592  366.85  0.034403  ( 0.090425  0.027859  0.159531)
 28:    684.19   0.020242  102.30  0.009233  ( 0.019398  0.057942 -0.074156)
 29:    693.70   0.013564   68.55  0.006102  ( 0.061578  0.007323  0.047502)
 30:    700.21   0.089596  452.78  0.039930  (-0.182708 -0.057718 -0.056716)
 31:    716.92   0.024011  121.34  0.010452  (-0.085600  0.049176 -0.026574)
 32:    720.99   0.011514   58.19  0.004984  ( 0.036748 -0.023428  0.055537)
 33:    737.53   0.048634  245.78  0.020578  (-0.091357 -0.044022 -0.101458)
 34:    761.09   0.002248   11.36  0.000922  (-0.008715 -0.013507  0.025755)
 35:    818.43   0.002086   10.54  0.000795  ( 0.020692  0.014584 -0.012432)
 36:    826.69   0.013047   65.94  0.004925  ( 0.050991  0.009598  0.047254)
 37:   3562.76   0.474908  2399.99  0.041597  (-0.170318  0.018032 -0.110744)
 38:   3567.78   0.011898   60.13  0.001041  (-0.023748 -0.013175  0.017411)

* The epsilon (eps) is given for a Dirac delta lineshape.
** The dipole moment derivative (T) already includes vibrational overlap.

--------------
RAMAN SPECTRUM  
--------------

 Mode    freq (cm**-1)   Activity   Depolarization
-------------------------------------------------------------------
   6:        49.53      2.378190      0.647840
   7:        65.29      0.947585      0.687465
   8:        73.05      9.110101      0.721977
   9:        79.20      9.287227      0.748233
  10:       113.44     19.041799      0.707961
  11:       162.58      0.798520      0.717348
  12:       206.66      1.809520      0.187522
  13:       218.70     34.110111      0.360765
  14:       229.29     16.695582      0.606477
  15:       261.20      4.832600      0.426903
  16:       312.89     64.982872      0.342140
  17:       323.53     31.059274      0.479801
  18:       333.58      0.508263      0.690401
  19:       355.69      1.379360      0.660895
  20:       366.93      2.920348      0.527591
  21:       385.49      5.417230      0.743533
  22:       397.98      1.570599      0.392547
  23:       425.16     11.286424      0.749967
  24:       439.01     23.331398      0.747630
  25:       442.68      3.264490      0.745443
  26:       495.71     12.238783      0.474909
  27:       658.47     28.620741      0.598222
  28:       684.19     77.172904      0.390889
  29:       693.70     26.578235      0.440223
  30:       700.21     28.717520      0.577802
  31:       716.92     12.763358      0.613875
  32:       720.99     34.037918      0.313349
  33:       737.53      3.806869      0.749964
  34:       761.09    408.646082      0.212848
  35:       818.43     42.188367      0.613741
  36:       826.69      4.401509      0.704718
  37:      3562.76    120.798519      0.710085
  38:      3567.78   3875.409237      0.312306

The first frequency considered to be a vibration is 6
The total number of vibrations considered is 33


--------------------------
THERMOCHEMISTRY AT 298.15K
--------------------------

Temperature         ... 298.15 K
Pressure            ... 1.00 atm
Total Mass          ... 302.81 AMU

Throughout the following assumptions are being made:
  (1) The electronic state is orbitally nondegenerate
      but the spin degeneracy is treated
  (2) There are no thermally accessible electronically excited states
  (3) Hindered rotations indicated by low frequency modes are not
      treated as such but are treated as vibrations and this may
      cause some error
  (4) All equations used are the standard statistical mechanics
      equations for an ideal gas
  (5) All vibrations are strictly harmonic

freq.      49.53  E(vib)   ...       0.52 
freq.      65.29  E(vib)   ...       0.50 
freq.      73.05  E(vib)   ...       0.49 
freq.      79.20  E(vib)   ...       0.49 
freq.     113.44  E(vib)   ...       0.45 
freq.     162.58  E(vib)   ...       0.39 
freq.     206.66  E(vib)   ...       0.35 
freq.     218.70  E(vib)   ...       0.33 
freq.     229.29  E(vib)   ...       0.32 
freq.     261.20  E(vib)   ...       0.30 
freq.     312.89  E(vib)   ...       0.25 
freq.     323.53  E(vib)   ...       0.25 
freq.     333.58  E(vib)   ...       0.24 
freq.     355.69  E(vib)   ...       0.22 
freq.     366.93  E(vib)   ...       0.22 
freq.     385.49  E(vib)   ...       0.20 
freq.     397.98  E(vib)   ...       0.20 
freq.     425.16  E(vib)   ...       0.18 
freq.     439.01  E(vib)   ...       0.17 
freq.     442.68  E(vib)   ...       0.17 
freq.     495.71  E(vib)   ...       0.14 
freq.     658.47  E(vib)   ...       0.08 
freq.     684.19  E(vib)   ...       0.07 
freq.     693.70  E(vib)   ...       0.07 
freq.     700.21  E(vib)   ...       0.07 
freq.     716.92  E(vib)   ...       0.07 
freq.     720.99  E(vib)   ...       0.07 
freq.     737.53  E(vib)   ...       0.06 
freq.     761.09  E(vib)   ...       0.06 
freq.     818.43  E(vib)   ...       0.05 
freq.     826.69  E(vib)   ...       0.04 
freq.    3562.76  E(vib)   ...       0.00 
freq.    3567.78  E(vib)   ...       0.00 

------------
INNER ENERGY
------------

The inner energy is: U= E(el) + E(ZPE) + E(vib) + E(rot) + E(trans)
    E(el)   - is the total energy from the electronic structure calculation
              = E(kin-el) + E(nuc-el) + E(el-el) + E(nuc-nuc)
    E(ZPE)  - the the zero temperature vibrational energy from the frequency calculation
    E(vib)  - the the finite temperature correction to E(ZPE) due to population
              of excited vibrational states
    E(rot)  - is the rotational thermal energy
    E(trans)- is the translational thermal energy

Summary of contributions to the inner energy U:
Electronic energy                ...  -4507.03968595 Eh
Zero point energy                ...      0.04598791 Eh      28.86 kcal/mol
Thermal vibrational correction   ...      0.01118911 Eh       7.02 kcal/mol
Thermal rotational correction    ...      0.00141627 Eh       0.89 kcal/mol
Thermal translational correction ...      0.00141627 Eh       0.89 kcal/mol
-----------------------------------------------------------------------
Total thermal energy                  -4506.97967640 Eh


Summary of corrections to the electronic energy:
(perhaps to be used in another calculation)
Total thermal correction                  0.01402165 Eh       8.80 kcal/mol
Non-thermal (ZPE) correction              0.04598791 Eh      28.86 kcal/mol
-----------------------------------------------------------------------
Total correction                          0.06000956 Eh      37.66 kcal/mol


--------
ENTHALPY
--------

The enthalpy is H = U + kB*T
                kB is Boltzmann's constant
Total free energy                 ...  -4506.97967640 Eh 
Thermal Enthalpy correction       ...      0.00094421 Eh       0.59 kcal/mol
-----------------------------------------------------------------------
Total Enthalpy                    ...  -4506.97873219 Eh


Note: Only C1 symmetry has been detected, increase convergence thresholds 
      if your molecule has a higher symmetry. Symmetry factor of 1.0 is   
      used for the rotational entropy correction. 
 

Note: Rotational entropy computed according to Herzberg 
Infrared and Raman Spectra, Chapter V,1, Van Nostrand Reinhold, 1945 
Point Group:  C1, Symmetry Number:   1  
Rotational constants in cm-1:     0.088108     0.012839     0.012813 

Vibrational entropy computed according to the QRRHO of S. Grimme
Chem.Eur.J. 2012 18 9955


-------
ENTROPY
-------

The entropy contributions are T*S = T*(S(el)+S(vib)+S(rot)+S(trans))
     S(el)   - electronic entropy
     S(vib)  - vibrational entropy
     S(rot)  - rotational entropy
     S(trans)- translational entropy
The entropies will be listed as multiplied by the temperature to get
units of energy

Electronic entropy                ...      0.00065446 Eh      0.41 kcal/mol
Vibrational entropy               ...      0.01946047 Eh     12.21 kcal/mol
Rotational entropy                ...      0.01477071 Eh      9.27 kcal/mol
Translational entropy             ...      0.02044037 Eh     12.83 kcal/mol
-----------------------------------------------------------------------
Final entropy term                ...      0.05532601 Eh     34.72 kcal/mol

In case the symmetry of your molecule has not been determined correctly
or in case you have a reason to use a different symmetry number we print 
out the resulting rotational entropy values for sn=1,12 :
 --------------------------------------------------------
|  sn= 1 | S(rot)=       0.01477071 Eh      9.27 kcal/mol|
|  sn= 2 | S(rot)=       0.01411625 Eh      8.86 kcal/mol|
|  sn= 3 | S(rot)=       0.01373342 Eh      8.62 kcal/mol|
|  sn= 4 | S(rot)=       0.01346180 Eh      8.45 kcal/mol|
|  sn= 5 | S(rot)=       0.01325111 Eh      8.32 kcal/mol|
|  sn= 6 | S(rot)=       0.01307896 Eh      8.21 kcal/mol|
|  sn= 7 | S(rot)=       0.01293342 Eh      8.12 kcal/mol|
|  sn= 8 | S(rot)=       0.01280734 Eh      8.04 kcal/mol|
|  sn= 9 | S(rot)=       0.01269613 Eh      7.97 kcal/mol|
|  sn=10 | S(rot)=       0.01259665 Eh      7.90 kcal/mol|
|  sn=11 | S(rot)=       0.01250666 Eh      7.85 kcal/mol|
|  sn=12 | S(rot)=       0.01242451 Eh      7.80 kcal/mol|
 --------------------------------------------------------


-------------------
GIBBS FREE ENERGY
-------------------

The Gibbs free energy is G = H - T*S

Total enthalpy                    ...  -4506.97873219 Eh 
Total entropy correction          ...     -0.05532601 Eh    -34.72 kcal/mol
-----------------------------------------------------------------------
Final Gibbs free energy         ...  -4507.03405819 Eh

For completeness - the Gibbs free energy minus the electronic energy
G-E(el)                           ...      0.00562776 Eh      3.53 kcal/mol



Timings for individual modules:

Sum of individual times         ...    26636.907 sec (= 443.948 min)
GTO integral calculation        ...       23.196 sec (=   0.387 min)   0.1 %
SCF iterations                  ...     7475.593 sec (= 124.593 min)  28.1 %
Solution of CP-SCF eqns.        ...       93.549 sec (=   1.559 min)   0.4 %
SCF Gradient evaluation         ...      487.537 sec (=   8.126 min)   1.8 %
Geometry relaxation             ...        2.746 sec (=   0.046 min)   0.0 %
Numerical frequency calculation ...    18554.285 sec (= 309.238 min)  69.7 %
                             ****ORCA TERMINATED NORMALLY****
TOTAL RUN TIME: 0 days 7 hours 23 minutes 39 seconds 2 msec
