
                                 *****************
                                 * O   R   C   A *
                                 *****************

           --- An Ab Initio, DFT and Semiempirical electronic structure package ---

                  #######################################################
                  #                        -***-                        #
                  #          Department of theory and spectroscopy      #
                  #               Directorship: Frank Neese             #
                  #        Max Planck Institute fuer Kohlenforschung    #
                  #                Kaiser Wilhelm Platz 1               #
                  #                 D-45470 Muelheim/Ruhr               #
                  #                      Germany                        #
                  #                                                     #
                  #                  All rights reserved                #
                  #                        -***-                        #
                  #######################################################


                         Program Version 4.2.1 -  RELEASE  -


 With contributions from (in alphabetic order):
   Daniel Aravena         : Magnetic Suceptibility
   Michael Atanasov       : Ab Initio Ligand Field Theory (pilot matlab implementation)
   Alexander A. Auer      : GIAO ZORA, VPT2
   Ute Becker             : Parallelization
   Giovanni Bistoni       : ED, misc. LED, open-shell LED, HFLD
   Martin Brehm           : Molecular dynamics
   Dmytro Bykov           : SCF Hessian
   Vijay G. Chilkuri      : MRCI spin determinant printing, contributions to CSF-ICE
   Dipayan Datta          : RHF DLPNO-CCSD density
   Achintya Kumar Dutta   : EOM-CC, STEOM-CC
   Dmitry Ganyushin       : Spin-Orbit,Spin-Spin,Magnetic field MRCI
   Miquel Garcia          : C-PCM Hessian, Gaussian charge scheme
   Yang Guo               : DLPNO-NEVPT2, CIM, IAO-localization
   Andreas Hansen         : Spin unrestricted coupled pair/coupled cluster methods
   Benjamin Helmich-Paris : CASSCF linear response (MC-RPA)
   Lee Huntington         : MR-EOM, pCC
   Robert Izsak           : Overlap fitted RIJCOSX, COSX-SCS-MP3, EOM
   Christian Kollmar      : KDIIS, OOCD, Brueckner-CCSD(T), CCSD density
   Simone Kossmann        : Meta GGA functionals, TD-DFT gradient, OOMP2, MP2 Hessian
   Martin Krupicka        : AUTO-CI
   Lucas Lang             : DCDCAS
   Dagmar Lenk            : GEPOL surface, SMD
   Dimitrios Liakos       : Extrapolation schemes; Compound Job, initial MDCI parallelization
   Dimitrios Manganas     : Further ROCIS development; embedding schemes
   Dimitrios Pantazis     : SARC Basis sets
   Taras Petrenko         : DFT Hessian,TD-DFT gradient, ASA, ECA, R-Raman, ABS, FL, XAS/XES, NRVS
   Peter Pinski           : DLPNO-MP2, DLPNO-MP2 Gradient
   Christoph Reimann      : Effective Core Potentials
   Marius Retegan         : Local ZFS, SOC
   Christoph Riplinger    : Optimizer, TS searches, QM/MM, DLPNO-CCSD(T), (RO)-DLPNO pert. Triples
   Tobias Risthaus        : Range-separated hybrids, TD-DFT gradient, RPA, STAB
   Michael Roemelt        : Original ROCIS implementation
   Masaaki Saitow         : Open-shell DLPNO-CCSD energy and density
   Barbara Sandhoefer     : DKH picture change effects
   Avijit Sen             : IP-ROCIS
   Kantharuban Sivalingam : CASSCF convergence, NEVPT2, FIC-MRCI
   Bernardo de Souza      : ESD, SOC TD-DFT
   Georgi Stoychev        : AutoAux, RI-MP2 NMR
   Willem Van den Heuvel  : Paramagnetic NMR
   Boris Wezisla          : Elementary symmetry handling
   Frank Wennmohs         : Technical directorship


 We gratefully acknowledge several colleagues who have allowed us to
 interface, adapt or use parts of their codes:
   Stefan Grimme, W. Hujo, H. Kruse,             : VdW corrections, initial TS optimization,
                  C. Bannwarth                     DFT functionals, gCP, sTDA/sTD-DF
   Ed Valeev, F. Pavosevic, A. Kumar             : LibInt (2-el integral package), F12 methods
   Garnet Chan, S. Sharma, J. Yang, R. Olivares  : DMRG
   Ulf Ekstrom                                   : XCFun DFT Library
   Mihaly Kallay                                 : mrcc  (arbitrary order and MRCC methods)
   Andreas Klamt, Michael Diedenhofen            : otool_cosmo (COSMO solvation model)
   Jiri Pittner, Ondrej Demel                    : Mk-CCSD
   Frank Weinhold                                : gennbo (NPA and NBO analysis)
   Christopher J. Cramer and Donald G. Truhlar   : smd solvation model
   Lars Goerigk                                  : TD-DFT with DH, B97 family of functionals
   V. Asgeirsson, H. Jonsson                     : NEB implementation
   FAccTs GmbH                                   : IRC, NEB, NEB-TS, Multilevel, MM, QM/MM, CI optimization
   S Lehtola, MJT Oliveira, MAL Marques          : LibXC Library


 Your calculation uses the libint2 library for the computation of 2-el integrals
 For citations please refer to: http://libint.valeyev.net

 Your ORCA version has been built with support for libXC version: 4.2.3
 For citations please refer to: https://tddft.org/programs/libxc/

 This ORCA versions uses:
   CBLAS   interface :  Fast vector & matrix operations
   LAPACKE interface :  Fast linear algebra routines
   SCALAPACK package :  Parallel linear algebra routines


SCAN-COORDS
----- Orbital basis set information -----
Your calculation utilizes the basis: def2-TZVP
   F. Weigend and R. Ahlrichs, Phys. Chem. Chem. Phys. 7, 3297 (2005).

----- AuxJ basis set information -----
Your calculation utilizes the auxiliary basis: def2/J
   F. Weigend, Phys. Chem. Chem. Phys. 8, 1057 (2006).

================================================================================
                                        WARNINGS
                       Please study these warnings very carefully!
================================================================================

WARNING: Gradients needed for Numerical Frequencies
  ===> : Setting RunTyp to EnGrad

WARNING: your system is open-shell and RHF/RKS was chosen
  ===> : WILL SWITCH to UHF/UKS


WARNING: The environment variable RSH_COMMAND is not set!
  ===> : All Displacements for the Numerical Hessian calculation
         will be started on localhost

INFO   : the flag for use of LIBINT has been found!

================================================================================
                                       INPUT FILE
================================================================================
NAME = input.inp
|  1> ! PAL4 PBE
|  2> 
|  3> %method
|  4>         method DFT
|  5>         runtyp Energy
|  6> end
|  7> 
|  8> %basis
|  9>         basis "def2-TZVP"
| 10> end
| 11> ! NumFreq
| 12> %output
| 13>         XYZFile true
| 14> end
| 15> %coords
| 16>         CTyp xyz
| 17>         Charge 0
| 18>         Mult 2
| 19>         Units Angs
| 20>         coords
| 21>         P       0	0	0
| 22>         end
| 23> end
| 24> 
| 25>                          ****END OF INPUT****
================================================================================

                     *******************************
                     * Energy+Gradient Calculation *
                     *******************************

---------------------------------
CARTESIAN COORDINATES (ANGSTROEM)
---------------------------------
  P      0.000000    0.000000    0.000000

----------------------------
CARTESIAN COORDINATES (A.U.)
----------------------------
  NO LB      ZA    FRAG     MASS         X           Y           Z
   0 P    15.0000    0    30.974    0.000000    0.000000    0.000000

--------------------------------
INTERNAL COORDINATES (ANGSTROEM)
--------------------------------
 P      0   0   0     0.000000000000     0.00000000     0.00000000

---------------------------
INTERNAL COORDINATES (A.U.)
---------------------------
 P      0   0   0     0.000000000000     0.00000000     0.00000000

---------------------
BASIS SET INFORMATION
---------------------
There are 1 groups of distinct atoms

 Group   1 Type P   : 14s9p3d1f contracted to 5s5p2d1f pattern {73211/51111/21/1}

Atom   0P    basis set group =>   1
---------------------------------
AUXILIARY/J BASIS SET INFORMATION
---------------------------------
There are 1 groups of distinct atoms

 Group   1 Type P   : 14s5p5d2f1g contracted to 8s4p3d1f1g pattern {71111111/2111/311/2/1}

Atom   0P    basis set group =>   1


           ************************************************************
           *        Program running with 4 parallel MPI-processes     *
           *              working on a common directory               *
           ************************************************************
------------------------------------------------------------------------------
                           ORCA GTO INTEGRAL CALCULATION
                           -- RI-GTO INTEGRALS CHOSEN --
------------------------------------------------------------------------------

                         BASIS SET STATISTICS AND STARTUP INFO

Gaussian basis set:
 # of primitive gaussian shells          ...   27
 # of primitive gaussian functions       ...   63
 # of contracted shells                  ...   13
 # of contracted basis functions         ...   37
 Highest angular momentum                ...    3
 Maximum contraction depth               ...    7
Auxiliary gaussian basis set:
 # of primitive gaussian shells          ...   27
 # of primitive gaussian functions       ...   77
 # of contracted shells                  ...   17
 # of contracted aux-basis functions     ...   51
 Highest angular momentum                ...    4
 Maximum contraction depth               ...    7
Ratio of auxiliary to basis functions    ...  1.38
Integral package used                  ... LIBINT
 One Electron integrals                  ... done
 Ordering auxiliary basis shells         ... done
 Integral threshhold             Thresh  ...  2.500e-11
 Primitive cut-off               TCut    ...  2.500e-12
 Pre-screening matrix                    ... done
 Shell pair data                         ... 
 Ordering of the shell pairs             ... done (   0.000 sec) 91 of 91 pairs
 Determination of significant pairs      ... done (   0.000 sec)
 Creation of shell pair data             ... done (   0.000 sec)
 Storage of shell pair data              ... done (   0.012 sec)
 Shell pair data done in (   0.013 sec)
 Computing two index integrals           ... done
 Cholesky decomposition of the V-matrix  ... done


Timings:
 Total evaluation time                   ...   0.263 sec (  0.004 min)
 One electron matrix time                ...   0.017 sec (  0.000 min) =  6.4%
 Schwartz matrix evaluation time         ...   0.192 sec (  0.003 min) = 72.8%
 Two index repulsion integral time       ...   0.001 sec (  0.000 min) =  0.2%
 Cholesky decomposition of V             ...   0.001 sec (  0.000 min) =  0.4%
 Three index repulsion integral time     ...   0.000 sec (  0.000 min) =  0.0%



           ************************************************************
           *        Program running with 4 parallel MPI-processes     *
           *              working on a common directory               *
           ************************************************************
-------------------------------------------------------------------------------
                                 ORCA SCF
-------------------------------------------------------------------------------

------------
SCF SETTINGS
------------
Hamiltonian:
 Density Functional     Method          .... DFT(GTOs)
 Exchange Functional    Exchange        .... PBE
   PBE kappa parameter   XKappa         ....  0.804000
   PBE mue parameter    XMuePBE         ....  0.219520
 Correlation Functional Correlation     .... PBE
   PBE beta parameter  CBetaPBE         ....  0.066725
 LDA part of GGA corr.  LDAOpt          .... PW91-LDA
 Gradients option       PostSCFGGA      .... off
   Density functional embedding theory  .... OFF
   NL short-range parameter             ....  6.400000
 RI-approximation to the Coulomb term is turned on
   Number of auxiliary basis functions  .... 51


General Settings:
 Integral files         IntName         .... input
 Hartree-Fock type      HFTyp           .... UHF
 Total Charge           Charge          ....    0
 Multiplicity           Mult            ....    2
 Number of Electrons    NEL             ....   15
 Basis Dimension        Dim             ....   37
 Nuclear Repulsion      ENuc            ....      0.0000000000 Eh

Convergence Acceleration:
 DIIS                   CNVDIIS         .... on
   Start iteration      DIISMaxIt       ....    12
   Startup error        DIISStart       ....  0.200000
   # of expansion vecs  DIISMaxEq       ....     5
   Bias factor          DIISBfac        ....   1.050
   Max. coefficient     DIISMaxC        ....  10.000
 Newton-Raphson         CNVNR           .... off
 SOSCF                  CNVSOSCF        .... off
 Level Shifting         CNVShift        .... on
   Level shift para.    LevelShift      ....    0.2500
   Turn off err/grad.   ShiftErr        ....    0.0010
 Zerner damping         CNVZerner       .... off
 Static damping         CNVDamp         .... on
   Fraction old density DampFac         ....    0.7000
   Max. Damping (<1)    DampMax         ....    0.9800
   Min. Damping (>=0)   DampMin         ....    0.0000
   Turn off err/grad.   DampErr         ....    0.1000
 Fernandez-Rico         CNVRico         .... off

SCF Procedure:
 Maximum # iterations   MaxIter         ....   125
 SCF integral mode      SCFMode         .... Direct
   Integral package                     .... LIBINT
 Reset frequency        DirectResetFreq ....    20
 Integral Threshold     Thresh          ....  2.500e-11 Eh
 Primitive CutOff       TCut            ....  2.500e-12 Eh

Convergence Tolerance:
 Convergence Check Mode ConvCheckMode   .... Total+1el-Energy
 Convergence forced     ConvForced      .... 0
 Energy Change          TolE            ....  1.000e-08 Eh
 1-El. energy change                    ....  1.000e-05 Eh
 DIIS Error             TolErr          ....  5.000e-07


Diagonalization of the overlap matrix:
Smallest eigenvalue                        ... 5.460e-02
Time for diagonalization                   ...    0.001 sec
Threshold for overlap eigenvalues          ... 1.000e-08
Number of eigenvalues below threshold      ... 0
Time for construction of square roots      ...    0.005 sec
Total time needed                          ...    0.006 sec

-------------------
DFT GRID GENERATION
-------------------

General Integration Accuracy     IntAcc      ...  4.340
Radial Grid Type                 RadialGrid  ... Gauss-Chebyshev
Angular Grid (max. acc.)         AngularGrid ... Lebedev-110
Angular grid pruning method      GridPruning ... 3 (G Style)
Weight generation scheme         WeightScheme... Becke
Basis function cutoff            BFCut       ...    1.0000e-11
Integration weight cutoff        WCut        ...    1.0000e-14
Grids for H and He will be reduced by one unit

# of grid points (after initial pruning)     ...   1806 (   0.0 sec)
# of grid points (after weights+screening)   ...   1806 (   0.0 sec)
Grid point division into batches done        ...    0.0 sec
Reduced shell lists constructed in    0.0 sec

Total number of grid points                  ...     1806
Total number of batches                      ...       29
Average number of points per batch           ...       62
Average number of grid points per atom       ...     1806
Average number of shells per batch           ...     7.56 (58.12%)
Average number of basis functions per batch  ...    25.78 (69.67%)
Average number of large shells per batch     ...     6.67 (88.24%)
Average number of large basis fcns per batch ...    22.22 (86.21%)
Maximum spatial batch extension              ...  17.83, 32.81, 32.81 au
Average spatial batch extension              ...   4.27,  5.56,  6.73 au

Time for grid setup =    0.017 sec

------------------------------
INITIAL GUESS: MODEL POTENTIAL
------------------------------
Loading Hartree-Fock densities                     ... done
Calculating cut-offs                               ... done
Setting up the integral package                    ... done
Initializing the effective Hamiltonian             ... done
Starting the Coulomb interaction                   ... done (   0.0 sec)
Reading the grid                                   ... done
Mapping shells                                     ... done
Starting the XC term evaluation                    ... done (   0.0 sec)
  promolecular density results
     # of electrons  =     14.999997786
     EX              =    -22.415450901
     EC              =     -0.544056959
     EX+EC           =    -22.959507860
Transforming the Hamiltonian                       ... done (   0.0 sec)
Diagonalizing the Hamiltonian                      ... done (   0.0 sec)
Back transforming the eigenvectors                 ... done (   0.0 sec)
Now organizing SCF variables                       ... done
                      ------------------
                      INITIAL GUESS DONE (   0.4 sec)
                      ------------------
--------------
SCF ITERATIONS
--------------
ITER       Energy         Delta-E        Max-DP      RMS-DP      [F,P]     Damp
               ***  Starting incremental Fock matrix formation  ***
  0   -341.0312480878   0.000000000000 0.00309325  0.00029283  0.0441694 0.7000
  1   -341.0324846545  -0.001236566612 0.00303748  0.00028060  0.0319117 0.7000
                               ***Turning on DIIS***
  2   -341.0333937369  -0.000909082463 0.00847760  0.00072975  0.0216772 0.0000
  3   -341.0355057834  -0.002112046457 0.00146622  0.00008686  0.0026046 0.0000
  4   -341.0355426939  -0.000036910529 0.22940876  0.01453199  0.0005583 0.0000
  5   -341.0260621338   0.009480560093 0.00002391  0.00000214  0.0890953 0.0000
  6   -341.0260389239   0.000023209902 0.00000980  0.00000076  0.0892105 0.0000
  7   -341.0260330043   0.000005919648 0.00001799  0.00000164  0.0892351 0.0000
  8   -341.0260187062   0.000014298075 0.00003299  0.00000263  0.0893038 0.0000
  9   -341.0259936280   0.000025078219 0.01670075  0.00156042  0.0894260 0.0000
 10   -341.0353804530  -0.009386825070 0.00979264  0.00039114  0.0080710 0.0000
 11   -341.0355367605  -0.000156307503 0.00096135  0.00007165  0.0031331 0.0000
 12   -341.0355495673  -0.000012806775 0.22363722  0.01451633  0.0006628 0.0000
 13   -341.0260704269   0.009479140408 0.00001065  0.00000104  0.0861002 0.0000
 14   -341.0260814107  -0.000010983806 0.00000289  0.00000020  0.0860518 0.0000
 15   -341.0260825681  -0.000001157350 0.00005249  0.00000311  0.0860486 0.0000
 16   -341.0261135061  -0.000030938039 0.00009226  0.00000362  0.0859112 0.0000
 17   -341.0261066823   0.000006823800 0.01622044  0.00152033  0.0859305 0.0000
 18   -341.0353821193  -0.009275437038 0.00968015  0.00038374  0.0092862 0.0000
 19   -341.0355355380  -0.000153418653 0.00088193  0.00006761  0.0030517 0.0000
               *** Restarting incremental Fock matrix formation ***
                                   *** Resetting DIIS ***
 20   -341.0355479758  -0.000012437807 0.22953943  0.01453234  0.0006539 0.0000
 21   -341.0260617854   0.009486190376 0.00003618  0.00000328  0.0891637 0.0000
 22   -341.0260984801  -0.000036694701 0.00001394  0.00000110  0.0889814 0.0000
 23   -341.0261071094  -0.000008629316 0.00000562  0.00000040  0.0889462 0.0000
 24   -341.0261094851  -0.000002375679 0.00000228  0.00000015  0.0889371 0.0000
 25   -341.0261102550  -0.000000769841 0.01665190  0.00154608  0.0889343 0.0000
 26   -341.0353831957  -0.009272940769 0.00975414  0.00038841  0.0080117 0.0000
 27   -341.0355371480  -0.000153952295 0.00093701  0.00007089  0.0030889 0.0000
 28   -341.0355497606  -0.000012612566 0.22357191  0.01451665  0.0006639 0.0000
 29   -341.0260709259   0.009478834723 0.00001088  0.00000106  0.0860824 0.0000
 30   -341.0260821595  -0.000011233657 0.00000313  0.00000022  0.0860328 0.0000
 31   -341.0260834941  -0.000001334577 0.00005293  0.00000310  0.0860289 0.0000
 32   -341.0261141475  -0.000030653362 0.00009313  0.00000366  0.0858926 0.0000
 33   -341.0261071121   0.000007035386 0.01621663  0.00152047  0.0859127 0.0000
 34   -341.0353833597  -0.009276247627 0.00968049  0.00038412  0.0092847 0.0000
 35   -341.0355379412  -0.000154581458 0.00105148  0.00007124  0.0030522 0.0000
 36   -341.0355525109  -0.000014569767 0.22946549  0.01453104  0.0006536 0.0000
 37   -341.0260934837   0.009459027215 0.00001227  0.00000110  0.0890914 0.0000
 38   -341.0261048804  -0.000011396675 0.00000322  0.00000022  0.0890360 0.0000
 39   -341.0261060974  -0.000001216980 0.00005353  0.00000321  0.0890322 0.0000
               *** Restarting incremental Fock matrix formation ***
                                   *** Resetting DIIS ***
 40   -341.0261370279  -0.000030930501 0.01664261  0.00154427  0.0888828 0.0000
 41   -341.0354151747  -0.009278146852 0.00968641  0.00039553  0.0080040 0.0000
 42   -341.0355975971  -0.000182422344 0.00227504  0.00013265  0.0030303 0.0000
 43   -341.0356630958  -0.000065498715 0.22294204  0.01447963  0.0006854 0.0000
 44   -341.0264914770   0.009171618753 0.00000922  0.00000090  0.0858314 0.0000
 45   -341.0265010158  -0.000009538793 0.00000496  0.00000023  0.0857894 0.0000
 46   -341.0264991505   0.000001865362 0.00006052  0.00000395  0.0857984 0.0000
 47   -341.0265264095  -0.000027259006 0.00009796  0.00000410  0.0856667 0.0000
 48   -341.0265190093   0.000007400196 0.01617940  0.00155021  0.0856893 0.0000
 49   -341.0361519240  -0.009632914765 0.00950914  0.00055851  0.0091170 0.0000
 50   -341.0369891266  -0.000837202585 0.00813664  0.00053719  0.0030756 0.0000
 51   -341.0382068867  -0.001217760116 0.21715077  0.01371313  0.0008710 0.0000
 52   -341.0344718527   0.003735034064 0.00004517  0.00000359  0.0838431 0.0000
 53   -341.0344343982   0.000037454433 0.00015364  0.00000884  0.0840157 0.0000
 54   -341.0343559774   0.000078420815 0.00016652  0.00001112  0.0842748 0.0000
 55   -341.0343115344   0.000044443027 0.00015919  0.00001072  0.0842741 0.0000
 56   -341.0343199816  -0.000008447213 0.02946682  0.00188758  0.0843012 0.0000
 57   -341.0484615128  -0.014141531157 0.01739865  0.00127509  0.0054481 0.0000
 58   -341.0551741416  -0.006712628801 0.01447404  0.00123312  0.0037480 0.0000
 59   -341.0620531127  -0.006878971176 0.01322807  0.00113195  0.0063938 0.0000
               *** Restarting incremental Fock matrix formation ***
                                   *** Resetting DIIS ***
 60   -341.0680073766  -0.005954263813 0.01095004  0.00096132  0.0090869 0.0000
 61   -341.0724966453  -0.004489268699 0.00959953  0.00074936  0.0052612 0.0000
 62   -341.0752649010  -0.002768255756 0.05150807  0.00335149  0.0009218 0.0000
 63   -341.0773733825  -0.002108481450 0.00004948  0.00000290  0.0200212 0.0000
 64   -341.0773629721   0.000010410400 0.00003334  0.00000184  0.0201327 0.0000
 65   -341.0773579063   0.000005065761 0.00005087  0.00000286  0.0201597 0.0000
 66   -341.0773489630   0.000008943267 0.00013258  0.00000749  0.0202293 0.0000
 67   -341.0773232216   0.000025741410 0.00852132  0.00052050  0.0204664 0.0000
 68   -341.0785538324  -0.001230610749 0.00404464  0.00023610  0.0017359 0.0000
 69   -341.0788154699  -0.000261637582 0.00258415  0.00016775  0.0017150 0.0000
 70   -341.0789503970  -0.000134927073 0.00180654  0.00012279  0.0015293 0.0000
 71   -341.0790207533  -0.000070356284 0.00132891  0.00008519  0.0013522 0.0000
 72   -341.0790559655  -0.000035212184 0.00321735  0.00020097  0.0008806 0.0000
 73   -341.0790913988  -0.000035433260 0.00054545  0.00003112  0.0001448 0.0000
 74   -341.0790908967   0.000000502100 0.00021724  0.00001224  0.0003804 0.0000
 75   -341.0790913674  -0.000000470704 0.00017274  0.00000974  0.0001735 0.0000
 76   -341.0790914908  -0.000000123445 0.00002126  0.00000146  0.0000110 0.0000
 77   -341.0790914915  -0.000000000726 0.00002032  0.00000134  0.0000110 0.0000
                 **** Energy Check signals convergence ****

               *****************************************************
               *                     SUCCESS                       *
               *           SCF CONVERGED AFTER  78 CYCLES          *
               *****************************************************

Setting up the final grid:

General Integration Accuracy     IntAcc      ...  4.670
Radial Grid Type                 RadialGrid  ... Gauss-Chebyshev
Angular Grid (max. acc.)         AngularGrid ... Lebedev-302
Angular grid pruning method      GridPruning ... 3 (G Style)
Weight generation scheme         WeightScheme... Becke
Basis function cutoff            BFCut       ...    1.0000e-11
Integration weight cutoff        WCut        ...    1.0000e-14
Grids for H and He will be reduced by one unit

# of grid points (after initial pruning)     ...   6846 (   0.0 sec)
# of grid points (after weights+screening)   ...   6846 (   0.0 sec)
Grid point division into batches done        ...    0.1 sec
Reduced shell lists constructed in    0.1 sec

Total number of grid points                  ...     6846
Total number of batches                      ...      107
Average number of points per batch           ...       63
Average number of grid points per atom       ...     6846
Average number of shells per batch           ...     4.32 (33.24%)
Average number of basis functions per batch  ...    13.75 (37.16%)
Average number of large shells per batch     ...     3.32 (76.86%)
Average number of large basis fcns per batch ...    10.39 (75.58%)
Maximum spatial batch extension              ...  27.84, 21.45, 18.12 au
Average spatial batch extension              ...   3.79,  3.54,  3.29 au

Final grid set up in    0.1 sec
Final integration                            ... done (   0.0 sec)
Change in XC energy                          ...     0.000089089
Integrated number of electrons               ...    15.000000215
Previous integrated no of electrons          ...    15.000002344

----------------
TOTAL SCF ENERGY
----------------

Total Energy       :         -341.07900240 Eh           -9281.23150 eV

Components:
Nuclear Repulsion  :            0.00000000 Eh               0.00000 eV
Electronic Energy  :         -341.07900240 Eh           -9281.23150 eV
One Electron Energy:         -471.47881345 Eh          -12829.59076 eV
Two Electron Energy:          130.39981105 Eh            3548.35925 eV

Virial components:
Potential Energy   :         -681.54656403 Eh          -18545.82486 eV
Kinetic Energy     :          340.46756162 Eh            9264.59335 eV
Virial Ratio       :            2.00179589


DFT components:
N(Alpha)           :        8.000000107475 electrons
N(Beta)            :        7.000000107997 electrons
N(Total)           :       15.000000215472 electrons
E(X)               :      -22.459694066813 Eh       
E(C)               :       -0.532197271761 Eh       
E(XC)              :      -22.991891338575 Eh       
DFET-embed. en.    :        0.000000000000 Eh       

---------------
SCF CONVERGENCE
---------------

  Last Energy change         ...   -2.2886e-09  Tolerance :   1.0000e-08
  Last MAX-Density change    ...    2.4135e-05  Tolerance :   1.0000e-07
  Last RMS-Density change    ...    1.6771e-06  Tolerance :   5.0000e-09
  Last DIIS Error            ...    1.0986e-05  Tolerance :   5.0000e-07

             **** THE GBW FILE WAS UPDATED (input.gbw) ****
             **** DENSITY FILE WAS UPDATED (input.scfp) ****
             **** ENERGY FILE WAS UPDATED (input.en.tmp) ****
----------------------
UHF SPIN CONTAMINATION
----------------------

Warning: in a DFT calculation there is little theoretical justification to 
         calculate <S**2> as in Hartree-Fock theory. We will do it anyways
         but you should keep in mind that the values have only limited relevance

Expectation value of <S**2>     :     1.763043
Ideal value S*(S+1) for S=0.5   :     0.750000
Deviation                       :     1.013043

             **** THE GBW FILE WAS UPDATED (input.gbw) ****
             **** DENSITY FILE WAS UPDATED (input.scfp) ****
----------------
ORBITAL ENERGIES
----------------
                 SPIN UP ORBITALS
  NO   OCC          E(Eh)            E(eV) 
   0   1.0000     -76.349583     -2077.5778 
   1   1.0000      -6.345778      -172.6774 
   2   1.0000      -4.565218      -124.2259 
   3   1.0000      -4.565074      -124.2220 
   4   1.0000      -4.556293      -123.9830 
   5   1.0000      -0.512899       -13.9567 
   6   1.0000      -0.222102        -6.0437 
   7   1.0000      -0.222094        -6.0435 
   8   0.0000      -0.168193        -4.5768 
   9   0.0000       0.200116         5.4454 
  10   0.0000       0.200129         5.4458 
  11   0.0000       0.205287         5.5862 
  12   0.0000       0.205290         5.5862 
  13   0.0000       0.227982         6.2037 
  14   0.0000       0.238993         6.5033 
  15   0.0000       0.239003         6.5036 
  16   0.0000       0.250761         6.8235 
  17   0.0000       0.265294         7.2190 
  18   0.0000       1.112281        30.2667 
  19   0.0000       1.112334        30.2681 
  20   0.0000       1.139656        31.0116 
  21   0.0000       1.139710        31.0131 
  22   0.0000       1.156427        31.4680 
  23   0.0000       1.223965        33.3058 
  24   0.0000       1.223970        33.3059 
  25   0.0000       1.253531        34.1103 
  26   0.0000       1.253579        34.1116 
  27   0.0000       1.280469        34.8433 
  28   0.0000       1.280583        34.8464 
  29   0.0000       1.294083        35.2138 
  30   0.0000       1.378075        37.4993 
  31   0.0000       1.378097        37.4999 
  32   0.0000       1.422511        38.7085 
  33   0.0000       7.007503       190.6839 
  34   0.0000       7.007673       190.6885 
  35   0.0000       7.033794       191.3993 
  36   0.0000      12.449373       338.7647 

                 SPIN DOWN ORBITALS
  NO   OCC          E(Eh)            E(eV) 
   0   1.0000     -76.345772     -2077.4741 
   1   1.0000      -6.341919      -172.5724 
   2   1.0000      -4.562848      -124.1614 
   3   1.0000      -4.554060      -123.9223 
   4   1.0000      -4.553915      -123.9183 
   5   1.0000      -0.479516       -13.0483 
   6   1.0000      -0.211600        -5.7579 
   7   0.0000      -0.153326        -4.1722 
   8   0.0000      -0.153318        -4.1720 
   9   0.0000       0.205595         5.5945 
  10   0.0000       0.238550         6.4913 
  11   0.0000       0.238637         6.4937 
  12   0.0000       0.241662         6.5759 
  13   0.0000       0.243639         6.6297 
  14   0.0000       0.243650         6.6301 
  15   0.0000       0.273800         7.4505 
  16   0.0000       0.290642         7.9088 
  17   0.0000       0.290647         7.9089 
  18   0.0000       1.137779        30.9605 
  19   0.0000       1.141251        31.0550 
  20   0.0000       1.141297        31.0563 
  21   0.0000       1.175691        31.9922 
  22   0.0000       1.175741        31.9935 
  23   0.0000       1.269180        34.5362 
  24   0.0000       1.275599        34.7108 
  25   0.0000       1.275664        34.7126 
  26   0.0000       1.290546        35.1175 
  27   0.0000       1.290655        35.1205 
  28   0.0000       1.338662        36.4269 
  29   0.0000       1.338689        36.4276 
  30   0.0000       1.386393        37.7257 
  31   0.0000       1.432342        38.9760 
  32   0.0000       1.432362        38.9766 
  33   0.0000       7.012439       190.8182 
  34   0.0000       7.040258       191.5751 
  35   0.0000       7.040426       191.5797 
  36   0.0000      12.459531       339.0411 

                    ********************************
                    * MULLIKEN POPULATION ANALYSIS *
                    ********************************

--------------------------------------------
MULLIKEN ATOMIC CHARGES AND SPIN POPULATIONS
--------------------------------------------
   0 P :   -0.000000    1.000000
Sum of atomic charges         :   -0.0000000
Sum of atomic spin populations:    1.0000000

-----------------------------------------------------
MULLIKEN REDUCED ORBITAL CHARGES AND SPIN POPULATIONS
-----------------------------------------------------
CHARGE
  0 P s       :     5.993435  s :     5.993435
      pz      :     2.999521  p :     8.998795
      px      :     2.999667
      py      :     2.999608
      dz2     :     0.003287  d :     0.006565
      dxz     :     0.000127
      dyz     :     0.002964
      dx2y2   :     0.000158
      dxy     :     0.000030
      f0      :     0.000338  f :     0.001205
      f+1     :     0.000200
      f-1     :     0.000368
      f+2     :     0.000141
      f-2     :     0.000134
      f+3     :     0.000012
      f-3     :     0.000012

SPIN
  0 P s       :     0.000877  s :     0.000877
      pz      :    -0.609582  p :     0.999860
      px      :     0.983632
      py      :     0.625809
      dz2     :    -0.000439  d :    -0.000877
      dxz     :    -0.000017
      dyz     :    -0.000396
      dx2y2   :    -0.000021
      dxy     :    -0.000004
      f0      :     0.000112  f :     0.000140
      f+1     :     0.000170
      f-1     :    -0.000314
      f+2     :     0.000038
      f-2     :     0.000114
      f+3     :     0.000010
      f-3     :     0.000009


                     *******************************
                     * LOEWDIN POPULATION ANALYSIS *
                     *******************************

-------------------------------------------
LOEWDIN ATOMIC CHARGES AND SPIN POPULATIONS
-------------------------------------------
   0 P :   -0.000000    1.000000

----------------------------------------------------
LOEWDIN REDUCED ORBITAL CHARGES AND SPIN POPULATIONS
----------------------------------------------------
CHARGE
  0 P s       :     5.993435  s :     5.993435
      pz      :     2.999521  p :     8.998795
      px      :     2.999667
      py      :     2.999608
      dz2     :     0.003287  d :     0.006565
      dxz     :     0.000127
      dyz     :     0.002964
      dx2y2   :     0.000158
      dxy     :     0.000030
      f0      :     0.000338  f :     0.001205
      f+1     :     0.000200
      f-1     :     0.000368
      f+2     :     0.000141
      f-2     :     0.000134
      f+3     :     0.000012
      f-3     :     0.000012

SPIN
  0 P s       :     0.000877  s :     0.000877
      pz      :    -0.609582  p :     0.999860
      px      :     0.983632
      py      :     0.625809
      dz2     :    -0.000439  d :    -0.000877
      dxz     :    -0.000017
      dyz     :    -0.000396
      dx2y2   :    -0.000021
      dxy     :    -0.000004
      f0      :     0.000112  f :     0.000140
      f+1     :     0.000170
      f-1     :    -0.000314
      f+2     :     0.000038
      f-2     :     0.000114
      f+3     :     0.000010
      f-3     :     0.000009


                      *****************************
                      * MAYER POPULATION ANALYSIS *
                      *****************************

  NA   - Mulliken gross atomic population
  ZA   - Total nuclear charge
  QA   - Mulliken gross atomic charge
  VA   - Mayer's total valence
  BVA  - Mayer's bonded valence
  FA   - Mayer's free valence

  ATOM       NA         ZA         QA         VA         BVA        FA
  0 P     15.0000    15.0000    -0.0000     3.0261     0.0000     3.0261

  Mayer bond orders larger than 0.100000


-------
TIMINGS
-------

Total SCF time: 0 days 0 hours 0 min 19 sec 

Total time                  ....      19.653 sec
Sum of individual times     ....      18.983 sec  ( 96.6%)

Fock matrix formation       ....      18.220 sec  ( 92.7%)
  Split-RI-J                ....      17.118 sec  ( 94.0% of F)
  XC integration            ....       0.597 sec  (  3.3% of F)
    Basis function eval.    ....       0.069 sec  ( 11.6% of XC)
    Density eval.           ....       0.135 sec  ( 22.6% of XC)
    XC-Functional eval.     ....       0.079 sec  ( 13.2% of XC)
    XC-Potential eval.      ....       0.098 sec  ( 16.4% of XC)
Diagonalization             ....       0.175 sec  (  0.9%)
Density matrix formation    ....       0.010 sec  (  0.1%)
Population analysis         ....       0.004 sec  (  0.0%)
Initial guess               ....       0.422 sec  (  2.1%)
Orbital Transformation      ....       0.000 sec  (  0.0%)
Orbital Orthonormalization  ....       0.000 sec  (  0.0%)
DIIS solution               ....       0.051 sec  (  0.3%)
Grid generation             ....       0.101 sec  (  0.5%)

-------------------------   --------------------
FINAL SINGLE POINT ENERGY      -341.079002404677
-------------------------   --------------------



           ************************************************************
           *        Program running with 4 parallel MPI-processes     *
           *              working on a common directory               *
           ************************************************************
------------------------------------------------------------------------------
                         ORCA SCF GRADIENT CALCULATION
------------------------------------------------------------------------------

Gradient of the Kohn-Sham DFT energy:
Kohn-Sham wavefunction type      ... UKS
Hartree-Fock exchange scaling    ...    0.000
Number of operators              ...    2
Number of atoms                  ...    1
Basis set dimensions             ...   37
Integral neglect threshold       ... 2.5e-11
Integral primitive cutoff        ... 2.5e-12

Nuclear repulsion gradient       ... done
One Electron Gradient            ... done
Pre-screening matrix             ... done
RI-J gradient                    ... done
Exchange-correlation gradient    ... done

------------------
CARTESIAN GRADIENT
------------------

   1   P   :    0.000000000   -0.000000000   -0.000000000

Difference to translation invariance:
           :    0.0000000000   -0.0000000000   -0.0000000000

Norm of the cartesian gradient     ...    0.0000000000
RMS gradient                       ...    0.0000000000
MAX gradient                       ...    0.0000000000

-------
TIMINGS
-------

Total SCF gradient time            ...        0.635 sec

One electron gradient       ....       0.021 sec  (  3.2%)
Prescreening matrices       ....       0.044 sec  (  6.9%)
RI-J Coulomb gradient       ....       0.161 sec  ( 25.3%)
XC gradient                 ....       0.057 sec  (  9.0%)

                            ***************************************
                            *     ORCA property calculations      *
                            ***************************************

                                    ---------------------
                                    Active property flags
                                    ---------------------
   (+) Dipole Moment


------------------------------------------------------------------------------
                       ORCA ELECTRIC PROPERTIES CALCULATION
------------------------------------------------------------------------------

Dipole Moment Calculation                       ... on
Quadrupole Moment Calculation                   ... off
Polarizability Calculation                      ... off
GBWName                                         ... input.gbw
Electron density file                           ... input.scfp
The origin for moment calculation is the CENTER OF MASS  = ( 0.000000,  0.000000  0.000000)

-------------
DIPOLE MOMENT
-------------
                                X             Y             Z
Electronic contribution:     -0.00000       0.00000      -0.00000
Nuclear contribution   :      0.00000       0.00000       0.00000
                        -----------------------------------------
Total Dipole Moment    :     -0.00000       0.00000      -0.00000
                        -----------------------------------------
Magnitude (a.u.)       :      0.00000
Magnitude (Debye)      :      0.00000



--------------------
Rotational spectrum 
--------------------
 
Rotational constants in cm-1:     0.000000     0.000000     0.000000 
Rotational constants in MHz :     0.000000     0.000000     0.000000 

 Dipole components along the rotational axes: 
x,y,z [a.u.] :    -0.000000     0.000000    -0.000000 
x,y,z [Debye]:    -0.000000     0.000000    -0.000000 

 

----------------------------------------------------------------------------
                           ORCA NUMERICAL FREQUENCIES
                              (4-process run)
----------------------------------------------------------------------------

Number of atoms                ... 1
Central differences            ... used
Number of displacements        ... 6
Numerical increment            ... 5.000e-03 bohr
IR-spectrum generation         ... on
Raman-spectrum generation      ... off
Surface Crossing Hessian       ... off

 WARNING: There are more processes than displacements to do
  ====> : Reducing number of processes to   3

The output will be reduced. Please look at the following files:
SCF program output             ... >input.lastscf
Integral program output        ... >input.lastint
Gradient program output        ... >input.lastgrad
Dipole moment program output   ... >input.lastmom
AutoCI program output          ... >input.lastautoci


         <<< Energy and Gradient at the input geometry >>>

        <<< Energy and Gradient at displaced geometries >>>
             <<<Displacing   1/coordinate 1 (+)>>>
             <<<Displacing   1/coordinate 2 (+)>>>
             <<<Displacing   1/coordinate 3 (+)>>>
             <<<Displacing   1/coordinate 1 (-)>>>
             <<<Displacing   1/coordinate 2 (-)>>>
             <<<Displacing   1/coordinate 3 (-)>>>

HESS(0,0)<Thresh ! - Please check !
HESS(1,1)<Thresh ! - Please check !
HESS(2,2)<Thresh ! - Please check !

############################################################################

WARNING: It seems that the Hessian Matrix ISN'T COMPLETE!
         Please check your results VERY carefully!
         For possible error information check files input.last*.dpl*
         If necessary - restart the job with local HessianFiles.
         Modify your input options to ensure convergence and/or
         avoid other sources of problems

############################################################################


Warning: T+R mode no 3 is zero 
Warning: T+R mode no 4 is zero 
Warning: T+R mode no 5 is zero 
WARNING     : the number of degrees of freedom found cannot be correct
CONSEQUENCE : will not project translation and rotation

-----------------------
VIBRATIONAL FREQUENCIES
-----------------------

Scaling factor for frequencies =  1.000000000 (already applied!)

   0:        -0.00 cm**-1
   1:        -0.00 cm**-1
   2:        -0.00 cm**-1


------------
NORMAL MODES
------------

These modes are the cartesian displacements weighted by the diagonal matrix
M(i,i)=1/sqrt(m[i]) where m[i] is the mass of the displaced atom
Thus, these vectors are normalized but *not* orthogonal

                   0          1          2    
      0      -0.986984   0.130968  -0.093330
      1      -0.050039   0.301433   0.952173
      2       0.152837   0.944450  -0.290956


-----------
IR SPECTRUM  
-----------

 Mode    freq (cm**-1)   T**2         TX         TY         TZ
-------------------------------------------------------------------

The first frequency considered to be a vibration is 0
The total number of vibrations considered is 3


--------------------------
THERMOCHEMISTRY AT 298.15K
--------------------------

Temperature         ... 298.15 K
Pressure            ... 1.00 atm
Total Mass          ... 30.97 AMU
The molecule is recognized as being linear

Throughout the following assumptions are being made:
  (1) The electronic state is orbitally nondegenerate
      but the spin degeneracy is treated
  (2) There are no thermally accessible electronically excited states
  (3) Hindered rotations indicated by low frequency modes are not
      treated as such but are treated as vibrations and this may
      cause some error
  (4) All equations used are the standard statistical mechanics
      equations for an ideal gas
  (5) All vibrations are strictly harmonic

freq.      -0.00  E(vib)   ...       0.59 
freq.      -0.00  E(vib)   ...       0.59 
freq.      -0.00  E(vib)   ...       0.59 

------------
INNER ENERGY
------------

The inner energy is: U= E(el) + E(ZPE) + E(vib) + E(rot) + E(trans)
    E(el)   - is the total energy from the electronic structure calculation
              = E(kin-el) + E(nuc-el) + E(el-el) + E(nuc-nuc)
    E(ZPE)  - the the zero temperature vibrational energy from the frequency calculation
    E(vib)  - the the finite temperature correction to E(ZPE) due to population
              of excited vibrational states
    E(rot)  - is the rotational thermal energy
    E(trans)- is the translational thermal energy

Summary of contributions to the inner energy U:
Electronic energy                ...   -341.07900268 Eh
Zero point energy                ...     -0.00000002 Eh      -0.00 kcal/mol
Thermal vibrational correction   ...      0.00283265 Eh       1.78 kcal/mol
Thermal rotational correction    ...      0.00000000 Eh       0.00 kcal/mol
Thermal translational correction ...      0.00141627 Eh       0.89 kcal/mol
-----------------------------------------------------------------------
Total thermal energy                   -341.07475378 Eh


Summary of corrections to the electronic energy:
(perhaps to be used in another calculation)
Total thermal correction                  0.00424892 Eh       2.67 kcal/mol
Non-thermal (ZPE) correction             -0.00000002 Eh      -0.00 kcal/mol
-----------------------------------------------------------------------
Total correction                          0.00424890 Eh       2.67 kcal/mol


--------
ENTHALPY
--------

The enthalpy is H = U + kB*T
                kB is Boltzmann's constant
Total free energy                 ...   -341.07475378 Eh 
Thermal Enthalpy correction       ...      0.00094421 Eh       0.59 kcal/mol
-----------------------------------------------------------------------
Total Enthalpy                    ...   -341.07380958 Eh


Note: Rotational entropy computed according to Herzberg 
Infrared and Raman Spectra, Chapter V,1, Van Nostrand Reinhold, 1945 
Point Group:  Kh, Symmetry Number:   1  
Rotational constants in cm-1:     0.000000     0.000000     0.000000 

Vibrational entropy computed according to the QRRHO of S. Grimme
Chem.Eur.J. 2012 18 9955


-------
ENTROPY
-------

The entropy contributions are T*S = T*(S(el)+S(vib)+S(rot)+S(trans))
     S(el)   - electronic entropy
     S(vib)  - vibrational entropy
     S(rot)  - rotational entropy
     S(trans)- translational entropy
The entropies will be listed as mutliplied by the temperature to get
units of energy

Electronic entropy                ...      0.00065446 Eh      0.41 kcal/mol
Vibrational entropy               ...             nan Eh       nan kcal/mol
Rotational entropy                ...      0.00000000 Eh      0.00 kcal/mol
Translational entropy             ...      0.01721134 Eh     10.80 kcal/mol
-----------------------------------------------------------------------
Final entropy term                ...             nan Eh       nan kcal/mol

In case the symmetry of your molecule has not been determined correctly
or in case you have a reason to use a different symmetry number we print 
out the resulting rotational entropy values for sn=1,12 :
 --------------------------------------------------------
|  sn= 1 | S(rot)=             -inf Eh      -inf kcal/mol|
|  sn= 2 | S(rot)=             -inf Eh      -inf kcal/mol|
|  sn= 3 | S(rot)=             -inf Eh      -inf kcal/mol|
|  sn= 4 | S(rot)=             -inf Eh      -inf kcal/mol|
|  sn= 5 | S(rot)=             -inf Eh      -inf kcal/mol|
|  sn= 6 | S(rot)=             -inf Eh      -inf kcal/mol|
|  sn= 7 | S(rot)=             -inf Eh      -inf kcal/mol|
|  sn= 8 | S(rot)=             -inf Eh      -inf kcal/mol|
|  sn= 9 | S(rot)=             -inf Eh      -inf kcal/mol|
|  sn=10 | S(rot)=             -inf Eh      -inf kcal/mol|
|  sn=11 | S(rot)=             -inf Eh      -inf kcal/mol|
|  sn=12 | S(rot)=             -inf Eh      -inf kcal/mol|
 --------------------------------------------------------


-------------------
GIBBS FREE ENERGY
-------------------

The Gibbs free energy is G = H - T*S

Total enthalpy                    ...   -341.07380958 Eh 
Total entropy correction          ...            -nan Eh      -nan kcal/mol
-----------------------------------------------------------------------
Final Gibbs free energy         ...             nan Eh

For completeness - the Gibbs free energy minus the electronic energy
G-E(el)                           ...             nan Eh       nan kcal/mol


Total Time for Numerical Frequencies  :        11.148 sec
Time for Reference State(s)           :         3.118 sec
Time for Displacements                :         7.856 sec

Timings for individual modules:

Sum of individual times         ...       24.975 sec (=   0.416 min)
GTO integral calculation        ...        1.495 sec (=   0.025 min)   6.0 %
SCF iterations                  ...       21.288 sec (=   0.355 min)  85.2 %
SCF Gradient evaluation         ...        2.192 sec (=   0.037 min)   8.8 %
                             ****ORCA TERMINATED NORMALLY****
TOTAL RUN TIME: 0 days 0 hours 0 minutes 33 seconds 852 msec
