
                                 *****************
                                 * O   R   C   A *
                                 *****************

           --- An Ab Initio, DFT and Semiempirical electronic structure package ---

                  #######################################################
                  #                        -***-                        #
                  #          Department of theory and spectroscopy      #
                  #               Directorship: Frank Neese             #
                  #        Max Planck Institute fuer Kohlenforschung    #
                  #                Kaiser Wilhelm Platz 1               #
                  #                 D-45470 Muelheim/Ruhr               #
                  #                      Germany                        #
                  #                                                     #
                  #                  All rights reserved                #
                  #                        -***-                        #
                  #######################################################


                         Program Version 4.2.1 -  RELEASE  -


 With contributions from (in alphabetic order):
   Daniel Aravena         : Magnetic Suceptibility
   Michael Atanasov       : Ab Initio Ligand Field Theory (pilot matlab implementation)
   Alexander A. Auer      : GIAO ZORA, VPT2
   Ute Becker             : Parallelization
   Giovanni Bistoni       : ED, misc. LED, open-shell LED, HFLD
   Martin Brehm           : Molecular dynamics
   Dmytro Bykov           : SCF Hessian
   Vijay G. Chilkuri      : MRCI spin determinant printing, contributions to CSF-ICE
   Dipayan Datta          : RHF DLPNO-CCSD density
   Achintya Kumar Dutta   : EOM-CC, STEOM-CC
   Dmitry Ganyushin       : Spin-Orbit,Spin-Spin,Magnetic field MRCI
   Miquel Garcia          : C-PCM Hessian, Gaussian charge scheme
   Yang Guo               : DLPNO-NEVPT2, CIM, IAO-localization
   Andreas Hansen         : Spin unrestricted coupled pair/coupled cluster methods
   Benjamin Helmich-Paris : CASSCF linear response (MC-RPA)
   Lee Huntington         : MR-EOM, pCC
   Robert Izsak           : Overlap fitted RIJCOSX, COSX-SCS-MP3, EOM
   Christian Kollmar      : KDIIS, OOCD, Brueckner-CCSD(T), CCSD density
   Simone Kossmann        : Meta GGA functionals, TD-DFT gradient, OOMP2, MP2 Hessian
   Martin Krupicka        : AUTO-CI
   Lucas Lang             : DCDCAS
   Dagmar Lenk            : GEPOL surface, SMD
   Dimitrios Liakos       : Extrapolation schemes; Compound Job, initial MDCI parallelization
   Dimitrios Manganas     : Further ROCIS development; embedding schemes
   Dimitrios Pantazis     : SARC Basis sets
   Taras Petrenko         : DFT Hessian,TD-DFT gradient, ASA, ECA, R-Raman, ABS, FL, XAS/XES, NRVS
   Peter Pinski           : DLPNO-MP2, DLPNO-MP2 Gradient
   Christoph Reimann      : Effective Core Potentials
   Marius Retegan         : Local ZFS, SOC
   Christoph Riplinger    : Optimizer, TS searches, QM/MM, DLPNO-CCSD(T), (RO)-DLPNO pert. Triples
   Tobias Risthaus        : Range-separated hybrids, TD-DFT gradient, RPA, STAB
   Michael Roemelt        : Original ROCIS implementation
   Masaaki Saitow         : Open-shell DLPNO-CCSD energy and density
   Barbara Sandhoefer     : DKH picture change effects
   Avijit Sen             : IP-ROCIS
   Kantharuban Sivalingam : CASSCF convergence, NEVPT2, FIC-MRCI
   Bernardo de Souza      : ESD, SOC TD-DFT
   Georgi Stoychev        : AutoAux, RI-MP2 NMR
   Willem Van den Heuvel  : Paramagnetic NMR
   Boris Wezisla          : Elementary symmetry handling
   Frank Wennmohs         : Technical directorship


 We gratefully acknowledge several colleagues who have allowed us to
 interface, adapt or use parts of their codes:
   Stefan Grimme, W. Hujo, H. Kruse,             : VdW corrections, initial TS optimization,
                  C. Bannwarth                     DFT functionals, gCP, sTDA/sTD-DF
   Ed Valeev, F. Pavosevic, A. Kumar             : LibInt (2-el integral package), F12 methods
   Garnet Chan, S. Sharma, J. Yang, R. Olivares  : DMRG
   Ulf Ekstrom                                   : XCFun DFT Library
   Mihaly Kallay                                 : mrcc  (arbitrary order and MRCC methods)
   Andreas Klamt, Michael Diedenhofen            : otool_cosmo (COSMO solvation model)
   Jiri Pittner, Ondrej Demel                    : Mk-CCSD
   Frank Weinhold                                : gennbo (NPA and NBO analysis)
   Christopher J. Cramer and Donald G. Truhlar   : smd solvation model
   Lars Goerigk                                  : TD-DFT with DH, B97 family of functionals
   V. Asgeirsson, H. Jonsson                     : NEB implementation
   FAccTs GmbH                                   : IRC, NEB, NEB-TS, Multilevel, MM, QM/MM, CI optimization
   S Lehtola, MJT Oliveira, MAL Marques          : LibXC Library


 Your calculation uses the libint2 library for the computation of 2-el integrals
 For citations please refer to: http://libint.valeyev.net

 Your ORCA version has been built with support for libXC version: 4.2.3
 For citations please refer to: https://tddft.org/programs/libxc/

 This ORCA versions uses:
   CBLAS   interface :  Fast vector & matrix operations
   LAPACKE interface :  Fast linear algebra routines
   SCALAPACK package :  Parallel linear algebra routines


SCAN-COORDS
----- Orbital basis set information -----
Your calculation utilizes the basis: 6-31++G**
   H-He, Li-Ne : W. J. Hehre, R. Ditchfield and J.A. Pople, J. Chem. Phys. 56, 2257 (1972).
                 Note: He and Ne are unpublished basis sets taken from the Gaussian program.
                 Note: Li and B from J. D. Dill and J. A. Pople, J. Chem. Phys. 62, 2921 (1975).
   Na - Ar     : M. M. Francl, W. J. Pietro, W. J. Hehre, J. S. Binkley, M. S. Gordon, 
                 D. J. DeFrees and J. A. Pople, J. Chem. Phys. 77, 3654 (1982).
   K - Zn      : V. A. Rassolov, J. A. Pople, M. A. Ratner, and T. L. Windus, J. Chem. Phys. 109, 1223 (1998).
   Additional Pol./Diff. from the 6-311G equivalent.

================================================================================
                                        WARNINGS
                       Please study these warnings very carefully!
================================================================================


WARNING: Geometry Optimization
  ===> : Switching off AutoStart
         For restart on a previous wavefunction, please use MOREAD

INFO   : the flag for use of LIBINT has been found!

================================================================================
                                       INPUT FILE
================================================================================
NAME = actividad2_Q2002B.inp
|  1> #end
|  2> %method
|  3> 	method HF
|  4> 	runtyp OPT
|  5> end
|  6> %basis
|  7> 	basis "6-31++G**"
|  8> end
|  9> ! NumFreq
| 10> %elprop
| 11> 	Polar 1
| 12> end
| 13> %output
| 14> 	XYZFile true
| 15> 	Print [ P_AtPopMO_L ] 1
| 16> 	Print [ P_OrbPopMO_L ] 1
| 17> end
| 18> %coords
| 19> 	CTyp xyz
| 20> 	Charge 0
| 21> 	Mult 1
| 22> 	Units Angs
| 23> 	coords
| 24> 	N       -6.4382077600      2.3423568560      0.0380982609                 
| 25> 	H       -5.4208800106      2.3479326254     -0.0199892628                 
| 26> 	H       -6.7498062077      1.5827316221     -0.5654221700                 
| 27> 	H       -6.7498091349      3.2028874120     -0.4099561403
| 28> 	end
| 29> end
| 30> 
| 31> 
| 32>                          ****END OF INPUT****
================================================================================

                       *****************************
                       * Geometry Optimization Run *
                       *****************************

Geometry optimization settings:
Update method            Update   .... BFGS
Choice of coordinates    CoordSys .... Z-matrix Internals
Initial Hessian          InHess   .... Almoef's Model

Convergence Tolerances:
Energy Change            TolE     ....  5.0000e-06 Eh
Max. Gradient            TolMAXG  ....  3.0000e-04 Eh/bohr
RMS Gradient             TolRMSG  ....  1.0000e-04 Eh/bohr
Max. Displacement        TolMAXD  ....  4.0000e-03 bohr
RMS Displacement         TolRMSD  ....  2.0000e-03 bohr
Strict Convergence                ....  False
------------------------------------------------------------------------------
                        ORCA OPTIMIZATION COORDINATE SETUP
------------------------------------------------------------------------------

The optimization will be done in new redundant internal coordinates
Making redundant internal coordinates   ...  (new redundants) done
Evaluating the initial hessian          ...  (Almloef) done
Evaluating the coordinates              ...  done
Calculating the B-matrix                .... done
Calculating the G-matrix                .... done
Diagonalizing the G-matrix              .... done
The first mode is                       ....    1
The number of degrees of freedom        ....    6

    -----------------------------------------------------------------
                    Redundant Internal Coordinates


    -----------------------------------------------------------------
         Definition                    Initial Value    Approx d2E/dq
    -----------------------------------------------------------------
      1. B(H   1,N   0)                  1.0190         0.418635   
      2. B(H   2,N   0)                  1.0190         0.418635   
      3. B(H   3,N   0)                  1.0190         0.418635   
      4. A(H   1,N   0,H   3)          105.9980         0.300074   
      5. A(H   2,N   0,H   3)          105.9980         0.300074   
      6. A(H   1,N   0,H   2)          105.9980         0.300074   
      7. I(H   1,H   3,H   2,N   0)    -62.7455         0.003529   
    -----------------------------------------------------------------

Number of atoms                         .... 4
Number of degrees of freedom            .... 7

         *************************************************************
         *                GEOMETRY OPTIMIZATION CYCLE   1            *
         *************************************************************
---------------------------------
CARTESIAN COORDINATES (ANGSTROEM)
---------------------------------
  N     -6.438208    2.342357    0.038098
  H     -5.420880    2.347933   -0.019989
  H     -6.749806    1.582732   -0.565422
  H     -6.749809    3.202887   -0.409956

----------------------------
CARTESIAN COORDINATES (A.U.)
----------------------------
  NO LB      ZA    FRAG     MASS         X           Y           Z
   0 N     7.0000    0    14.007  -12.166449    4.426413    0.071995
   1 H     1.0000    0     1.008  -10.243979    4.436950   -0.037774
   2 H     1.0000    0     1.008  -12.755285    2.990929   -1.068493
   3 H     1.0000    0     1.008  -12.755291    6.052580   -0.774705

--------------------------------
INTERNAL COORDINATES (ANGSTROEM)
--------------------------------
 N      0   0   0     0.000000000000     0.00000000     0.00000000
 H      1   0   0     1.018999999663     0.00000000     0.00000000
 H      1   2   0     1.018999999559   105.99799982     0.00000000
 H      1   2   3     1.019000000532   105.99799978   247.63781939

---------------------------
INTERNAL COORDINATES (A.U.)
---------------------------
 N      0   0   0     0.000000000000     0.00000000     0.00000000
 H      1   0   0     1.925630929829     0.00000000     0.00000000
 H      1   2   0     1.925630929632   105.99799982     0.00000000
 H      1   2   3     1.925630931471   105.99799978   247.63781939

---------------------
BASIS SET INFORMATION
---------------------
There are 2 groups of distinct atoms

 Group   1 Type N   : 11s5p1d contracted to 4s3p1d pattern {6311/311/1}
 Group   2 Type H   : 5s1p contracted to 3s1p pattern {311/1}

Atom   0N    basis set group =>   1
Atom   1H    basis set group =>   2
Atom   2H    basis set group =>   2
Atom   3H    basis set group =>   2
------------------------------------------------------------------------------
                           ORCA GTO INTEGRAL CALCULATION
------------------------------------------------------------------------------

                         BASIS SET STATISTICS AND STARTUP INFO

 # of primitive gaussian shells          ...   35
 # of primitive gaussian functions       ...   55
 # of contracted shells                  ...   20
 # of contracted basis functions         ...   36
 Highest angular momentum                ...    2
 Maximum contraction depth               ...    6
 Integral package used                   ... LIBINT
 Integral threshhold            Thresh   ...  2.500e-11
 Primitive cut-off              TCut     ...  2.500e-12


------------------------------ INTEGRAL EVALUATION ----------------------------


 * One electron integrals 
 Pre-screening matrix                    ... done
 Shell pair data                         ... done (   0.000 sec)

-------------------------------------------------------------------------------
                                 ORCA SCF
-------------------------------------------------------------------------------

------------
SCF SETTINGS
------------
Hamiltonian:
 Ab initio Hamiltonian  Method          .... Hartree-Fock(GTOs)


General Settings:
 Integral files         IntName         .... actividad2_Q2002B
 Hartree-Fock type      HFTyp           .... RHF
 Total Charge           Charge          ....    0
 Multiplicity           Mult            ....    1
 Number of Electrons    NEL             ....   10
 Basis Dimension        Dim             ....   36
 Nuclear Repulsion      ENuc            ....     11.8808998300 Eh

Convergence Acceleration:
 DIIS                   CNVDIIS         .... on
   Start iteration      DIISMaxIt       ....    12
   Startup error        DIISStart       ....  0.200000
   # of expansion vecs  DIISMaxEq       ....     5
   Bias factor          DIISBfac        ....   1.050
   Max. coefficient     DIISMaxC        ....  10.000
 Newton-Raphson         CNVNR           .... off
 SOSCF                  CNVSOSCF        .... on
   Start iteration      SOSCFMaxIt      ....   150
   Startup grad/error   SOSCFStart      ....  0.003300
 Level Shifting         CNVShift        .... on
   Level shift para.    LevelShift      ....    0.2500
   Turn off err/grad.   ShiftErr        ....    0.0010
 Zerner damping         CNVZerner       .... off
 Static damping         CNVDamp         .... on
   Fraction old density DampFac         ....    0.7000
   Max. Damping (<1)    DampMax         ....    0.9800
   Min. Damping (>=0)   DampMin         ....    0.0000
   Turn off err/grad.   DampErr         ....    0.1000
 Fernandez-Rico         CNVRico         .... off

SCF Procedure:
 Maximum # iterations   MaxIter         ....   125
 SCF integral mode      SCFMode         .... Direct
   Integral package                     .... LIBINT
 Reset frequency        DirectResetFreq ....    20
 Integral Threshold     Thresh          ....  2.500e-11 Eh
 Primitive CutOff       TCut            ....  2.500e-12 Eh

Convergence Tolerance:
 Convergence Check Mode ConvCheckMode   .... Total+1el-Energy
 Convergence forced     ConvForced      .... 0
 Energy Change          TolE            ....  1.000e-08 Eh
 1-El. energy change                    ....  1.000e-05 Eh
 Orbital Gradient       TolG            ....  1.000e-05
 Orbital Rotation angle TolX            ....  1.000e-05
 DIIS Error             TolErr          ....  5.000e-07


Diagonalization of the overlap matrix:
Smallest eigenvalue                        ... 9.726e-03
Time for diagonalization                   ...    0.001 sec
Threshold for overlap eigenvalues          ... 1.000e-08
Number of eigenvalues below threshold      ... 0
Time for construction of square roots      ...    0.000 sec
Total time needed                          ...    0.001 sec

-------------------
DFT GRID GENERATION
-------------------

General Integration Accuracy     IntAcc      ...  4.340
Radial Grid Type                 RadialGrid  ... Gauss-Chebyshev
Angular Grid (max. acc.)         AngularGrid ... Lebedev-110
Angular grid pruning method      GridPruning ... 3 (G Style)
Weight generation scheme         WeightScheme... Becke
Basis function cutoff            BFCut       ...    1.0000e-11
Integration weight cutoff        WCut        ...    1.0000e-14
Grids for H and He will be reduced by one unit

# of grid points (after initial pruning)     ...   4084 (   0.0 sec)
# of grid points (after weights+screening)   ...   4023 (   0.0 sec)
nearest neighbour list constructed           ...    0.0 sec
Grid point re-assignment to atoms done       ...    0.0 sec
Grid point division into batches done        ...    0.0 sec
Reduced shell lists constructed in    0.0 sec

Total number of grid points                  ...     4023
Total number of batches                      ...       65
Average number of points per batch           ...       61
Average number of grid points per atom       ...     1006
Average number of shells per batch           ...    18.98 (94.92%)
Average number of basis functions per batch  ...    34.08 (94.65%)
Average number of large shells per batch     ...    18.24 (96.09%)
Average number of large basis fcns per batch ...    32.52 (95.42%)
Maximum spatial batch extension              ...  18.70, 20.95, 21.59 au
Average spatial batch extension              ...   5.02,  4.72,  5.00 au

Time for grid setup =    0.017 sec

------------------------------
INITIAL GUESS: MODEL POTENTIAL
------------------------------
Loading Hartree-Fock densities                     ... done
Calculating cut-offs                               ... done
Setting up the integral package                    ... done
Initializing the effective Hamiltonian             ... done
Starting the Coulomb interaction                   ... done (   0.0 sec)
Reading the grid                                   ... done
Mapping shells                                     ... done
Starting the XC term evaluation                    ... done (   0.0 sec)
Transforming the Hamiltonian                       ... done (   0.0 sec)
Diagonalizing the Hamiltonian                      ... done (   0.0 sec)
Back transforming the eigenvectors                 ... done (   0.0 sec)
Now organizing SCF variables                       ... done
                      ------------------
                      INITIAL GUESS DONE (   0.1 sec)
                      ------------------
--------------
SCF ITERATIONS
--------------
ITER       Energy         Delta-E        Max-DP      RMS-DP      [F,P]     Damp
               ***  Starting incremental Fock matrix formation  ***
  0    -56.0737185841   0.000000000000 0.07953016  0.00444820  0.3144359 0.7000
  1    -56.1231872979  -0.049468713856 0.05701231  0.00319512  0.1910724 0.7000
                               ***Turning on DIIS***
  2    -56.1500291669  -0.026841868965 0.03284679  0.00186752  0.1024260 0.7000
  3    -56.3310756051  -0.181046438177 0.04529946  0.00289434  0.0537250 0.0000
  4    -56.1600263436   0.171049261482 0.00772914  0.00056559  0.0139684 0.0000
                      *** Initiating the SOSCF procedure ***
                           *** Shutting down DIIS ***
                      *** Re-Reading the Fockian *** 
                      *** Removing any level shift *** 
ITER      Energy       Delta-E        Grad      Rot      Max-DP    RMS-DP
  5    -56.19622668  -0.0362003386  0.001326  0.001326  0.002776  0.000272
               *** Restarting incremental Fock matrix formation ***
  6    -56.19985865  -0.0036319675  0.000623  0.001000  0.001964  0.000169
  7    -56.19986393  -0.0000052811  0.000251  0.000663  0.001481  0.000117
  8    -56.19986503  -0.0000010965  0.000107  0.000061  0.000150  0.000011
  9    -56.19986507  -0.0000000410  0.000028  0.000033  0.000047  0.000004
 10    -56.19986507  -0.0000000051  0.000003  0.000009  0.000015  0.000001
                 **** Energy Check signals convergence ****
              ***Rediagonalizing the Fockian in SOSCF/NRSCF***

               *****************************************************
               *                     SUCCESS                       *
               *           SCF CONVERGED AFTER  11 CYCLES          *
               *****************************************************


----------------
TOTAL SCF ENERGY
----------------

Total Energy       :          -56.19986507 Eh           -1529.27608 eV

Components:
Nuclear Repulsion  :           11.88089983 Eh             323.29572 eV
Electronic Energy  :          -68.08076490 Eh           -1852.57180 eV
One Electron Energy:          -99.39972575 Eh           -2704.80405 eV
Two Electron Energy:           31.31896085 Eh             852.23225 eV

Virial components:
Potential Energy   :         -112.23260921 Eh           -3054.00456 eV
Kinetic Energy     :           56.03274414 Eh            1524.72848 eV
Virial Ratio       :            2.00298256


---------------
SCF CONVERGENCE
---------------

  Last Energy change         ...   -2.2719e-10  Tolerance :   1.0000e-08
  Last MAX-Density change    ...    4.9276e-06  Tolerance :   1.0000e-07
  Last RMS-Density change    ...    3.3503e-07  Tolerance :   5.0000e-09
  Last Orbital Gradient      ...    1.0508e-06  Tolerance :   1.0000e-05
  Last Orbital Rotation      ...    3.7553e-06  Tolerance :   1.0000e-05

             **** THE GBW FILE WAS UPDATED (actividad2_Q2002B.gbw) ****
             **** DENSITY FILE WAS UPDATED (actividad2_Q2002B.scfp) ****
             **** ENERGY FILE WAS UPDATED (actividad2_Q2002B.en.tmp) ****
             **** THE GBW FILE WAS UPDATED (actividad2_Q2002B.gbw) ****
             **** DENSITY FILE WAS UPDATED (actividad2_Q2002B.scfp) ****
----------------
ORBITAL ENERGIES
----------------

  NO   OCC          E(Eh)            E(eV) 
   0   2.0000     -15.555092      -423.2756 
   1   2.0000      -1.143313       -31.1111 
   2   2.0000      -0.626606       -17.0508 
   3   2.0000      -0.626606       -17.0508 
   4   2.0000      -0.429285       -11.6814 
   5   0.0000       0.042501         1.1565 
   6   0.0000       0.074134         2.0173 
   7   0.0000       0.074134         2.0173 
   8   0.0000       0.193390         5.2624 
   9   0.0000       0.249546         6.7905 
  10   0.0000       0.252152         6.8614 
  11   0.0000       0.252152         6.8614 
  12   0.0000       0.359375         9.7791 
  13   0.0000       0.359375         9.7791 
  14   0.0000       0.438354        11.9282 
  15   0.0000       1.142456        31.0878 
  16   0.0000       1.142456        31.0878 
  17   0.0000       1.145044        31.1582 
  18   0.0000       1.181689        32.1554 
  19   0.0000       1.181689        32.1554 
  20   0.0000       1.362888        37.0861 
  21   0.0000       1.543743        42.0074 
  22   0.0000       1.682660        45.7875 
  23   0.0000       1.682660        45.7875 
  24   0.0000       2.144058        58.3428 
  25   0.0000       2.388031        64.9816 
  26   0.0000       2.584109        70.3172 
  27   0.0000       2.584109        70.3172 
  28   0.0000       2.701452        73.5102 
  29   0.0000       2.701452        73.5102 
  30   0.0000       3.141334        85.4801 
  31   0.0000       3.280472        89.2662 
  32   0.0000       3.280472        89.2662 
  33   0.0000       3.655358        99.4674 
  34   0.0000       3.832998       104.3012 
  35   0.0000       3.832998       104.3012 

                    ********************************
                    * MULLIKEN POPULATION ANALYSIS *
                    ********************************

-----------------------
MULLIKEN ATOMIC CHARGES
-----------------------
   0 N :   -0.836599
   1 H :    0.278866
   2 H :    0.278866
   3 H :    0.278866
Sum of atomic charges:   -0.0000000

--------------------------------
MULLIKEN REDUCED ORBITAL CHARGES
--------------------------------
  0 N s       :     3.632990  s :     3.632990
      pz      :     1.741661  p :     4.173085
      px      :     1.248698
      py      :     1.182726
      dz2     :     0.002863  d :     0.030524
      dxz     :     0.002715
      dyz     :     0.013155
      dx2y2   :     0.010476
      dxy     :     0.001314
  1 H s       :     0.695128  s :     0.695128
      pz      :     0.006978  p :     0.026005
      px      :     0.015103
      py      :     0.003925
  2 H s       :     0.695128  s :     0.695128
      pz      :     0.009758  p :     0.026005
      px      :     0.005652
      py      :     0.010596
  3 H s       :     0.695128  s :     0.695128
      pz      :     0.008283  p :     0.026005
      px      :     0.005652
      py      :     0.012071


                     *******************************
                     * LOEWDIN POPULATION ANALYSIS *
                     *******************************

----------------------
LOEWDIN ATOMIC CHARGES
----------------------
   0 N :   -0.498087
   1 H :    0.166029
   2 H :    0.166029
   3 H :    0.166029

-------------------------------
LOEWDIN REDUCED ORBITAL CHARGES
-------------------------------
  0 N s       :     3.255068  s :     3.255068
      pz      :     1.697812  p :     4.200305
      px      :     1.279254
      py      :     1.223240
      dz2     :     0.002959  d :     0.042714
      dxz     :     0.002537
      dyz     :     0.016857
      dx2y2   :     0.016655
      dxy     :     0.003705
  1 H s       :     0.754367  s :     0.754367
      pz      :     0.020959  p :     0.079604
      px      :     0.047898
      py      :     0.010748
  2 H s       :     0.754367  s :     0.754367
      pz      :     0.031251  p :     0.079604
      px      :     0.016116
      py      :     0.032237
  3 H s       :     0.754367  s :     0.754367
      pz      :     0.026101  p :     0.079604
      px      :     0.016116
      py      :     0.037388

-------------------------------
LOEWDIN ATOM POPULATIONS PER MO
-------------------------------
THRESHOLD FOR PRINTING IS 0.1%
                      0         1         2         3         4         5   
                 -15.55509  -1.14331  -0.62661  -0.62661  -0.42929   0.04250
                   2.00000   2.00000   2.00000   2.00000   2.00000   0.00000
                  --------  --------  --------  --------  --------  --------
  0 N                99.8      57.1      62.0      62.0      94.0       4.0
  1 H                 0.1      14.3       1.4      23.9       2.0      32.0
  2 H                 0.1      14.3      14.4      10.9       2.0      32.0
  3 H                 0.1      14.3      22.2       3.1       2.0      32.0

                      6         7         8         9        10        11   
                   0.07413   0.07413   0.19339   0.24955   0.25215   0.25215
                   0.00000   0.00000   0.00000   0.00000   0.00000   0.00000
                  --------  --------  --------  --------  --------  --------
  0 N                19.5      19.5      97.3      81.8      79.2      79.2
  1 H                40.2      13.5       0.9       6.1       2.9      11.0
  2 H                40.3      13.4       0.9       6.1       4.3       9.6
  3 H                 0.0      53.7       0.9       6.1      13.6       0.2

                     12        13        14        15        16        17   
                   0.35938   0.35938   0.43835   1.14246   1.14246   1.14504
                   0.00000   0.00000   0.00000   0.00000   0.00000   0.00000
                  --------  --------  --------  --------  --------  --------
  0 N                24.5      24.5      36.2      52.1      52.1      95.8
  1 H                13.5      36.8      21.3      20.9      11.0       1.4
  2 H                12.9      37.4      21.3      23.2       8.8       1.4
  3 H                49.0       1.3      21.3       3.8      28.2       1.4

                     18        19        20        21        22        23   
                   1.18169   1.18169   1.36289   1.54374   1.68266   1.68266
                   0.00000   0.00000   0.00000   0.00000   0.00000   0.00000
                  --------  --------  --------  --------  --------  --------
  0 N                68.8      68.8      34.8      80.0      59.2      59.2
  1 H                 1.8      19.0      21.7       6.7      14.1      13.2
  2 H                 9.7      11.1      21.7       6.7      14.7      12.5
  3 H                19.7       1.2      21.7       6.7      12.1      15.2

                     24        25        26        27        28        29   
                   2.14406   2.38803   2.58411   2.58411   2.70145   2.70145
                   0.00000   0.00000   0.00000   0.00000   0.00000   0.00000
                  --------  --------  --------  --------  --------  --------
  0 N                64.1       0.0      10.0      10.0      46.2      46.2
  1 H                12.0      33.3      37.2      22.9      27.7       8.1
  2 H                12.0      33.3      37.6      22.4      24.0      11.9
  3 H                12.0      33.3      15.3      44.7       2.1      33.8

                     30        31        32        33        34        35   
                   3.14133   3.28047   3.28047   3.65536   3.83300   3.83300
                   0.00000   0.00000   0.00000   0.00000   0.00000   0.00000
                  --------  --------  --------  --------  --------  --------
  0 N                30.2      41.0      41.0      24.8      37.6      37.6
  1 H                23.3      29.6       9.7      25.1      30.0      11.6
  2 H                23.3      20.0      19.3      25.1      32.1       9.5
  3 H                23.3       9.4      30.0      25.1       0.3      41.3


----------------------------------
LOEWDIN ORBITAL POPULATIONS PER MO
----------------------------------
THRESHOLD FOR PRINTING IS 0.1%
                      0         1         2         3         4         5   
                 -15.55509  -1.14331  -0.62661  -0.62661  -0.42929   0.04250
                   2.00000   2.00000   2.00000   2.00000   2.00000   0.00000
                  --------  --------  --------  --------  --------  --------
  0N   1s             97.9       1.6       0.0       0.0       0.1       0.0
  0N   2s              1.3      27.4       0.0       0.0       3.9       1.3
  0N   1pz             0.0       0.8       0.0       3.9      38.2       0.3
  0N   1px             0.0       0.1       1.0      28.0       4.8       0.0
  0N   1py             0.0       0.0      31.6       0.8       0.4       0.0
  0N   3s              0.5      22.7       0.0       0.0       3.1       1.6
  0N   2pz             0.0       0.4       0.0       2.9      31.0       0.0
  0N   2px             0.0       0.1       0.8      21.0       3.9       0.0
  0N   2py             0.0       0.0      23.7       0.6       0.3       0.0
  0N   4s              0.0       4.0       0.0       0.0       0.3       0.0
  0N   3pz             0.0       0.0       0.0       0.4       7.1       0.6
  0N   3px             0.0       0.0       0.1       3.2       0.9       0.1
  0N   3py             0.0       0.0       3.7       0.1       0.1       0.0
  0N   1dz2            0.0       0.0       0.0       0.1       0.0       0.0
  0N   1dxz            0.0       0.0       0.0       0.1       0.0       0.0
  0N   1dyz            0.0       0.0       0.8       0.0       0.0       0.0
  0N   1dx2y2          0.0       0.0       0.1       0.8       0.0       0.0
  0N   1dxy            0.0       0.0       0.2       0.0       0.0       0.0
  1H   1s              0.0       5.7       0.6      16.6       0.9       0.0
  1H   2s              0.0       6.1       0.2       6.4       0.1       0.0
  1H   3s              0.0       1.0       0.0       0.1       0.0      31.7
  1H   1pz             0.0       0.0       0.0       0.1       1.0       0.0
  1H   1px             0.0       1.6       0.0       0.8       0.0       0.3
  1H   1py             0.0       0.0       0.5       0.0       0.0       0.0
  2H   1s              0.0       5.7       9.8       7.4       0.9       0.0
  2H   2s              0.0       6.1       3.8       2.8       0.1       0.0
  2H   3s              0.0       1.0       0.1       0.1       0.0      31.7
  2H   1pz             0.0       0.4       0.4       0.1       0.6       0.0
  2H   1px             0.0       0.2       0.3       0.1       0.2       0.1
  2H   1py             0.0       0.9       0.0       0.4       0.2       0.2
  3H   1s              0.0       5.7      15.3       1.8       0.9       0.0
  3H   2s              0.0       6.1       5.9       0.7       0.1       0.0
  3H   3s              0.0       1.0       0.1       0.0       0.0      31.7
  3H   1pz             0.0       0.2       0.4       0.0       0.7       0.0
  3H   1px             0.0       0.2       0.1       0.3       0.2       0.1
  3H   1py             0.0       1.2       0.3       0.3       0.1       0.2

                      6         7         8         9        10        11   
                   0.07413   0.07413   0.19339   0.24955   0.25215   0.25215
                   0.00000   0.00000   0.00000   0.00000   0.00000   0.00000
                  --------  --------  --------  --------  --------  --------
  0N   2s              0.0       0.0       0.0      11.0       0.0       0.0
  0N   1pz             0.1       0.0       6.6       0.0       0.0       0.2
  0N   1px             0.6       0.2       0.8       0.0       0.3       1.3
  0N   1py             0.2       0.7       0.1       0.0       1.4       0.3
  0N   3s              0.0       0.0       0.1       2.5       0.0       0.0
  0N   2pz             0.2       0.0       0.8       0.0       0.0       0.3
  0N   2px             1.3       0.4       0.1       0.0       0.5       2.1
  0N   2py             0.4       1.5       0.0       0.0       2.4       0.5
  0N   4s              0.0       0.0       3.1      64.2       0.0       0.0
  0N   3pz             1.9       0.1      75.5       3.6       0.3       8.5
  0N   3px            11.0       3.7       9.5       0.5      13.1      52.3
  0N   3py             3.7      12.8       0.7       0.0      60.1      12.8
  0N   1dyz            0.0       0.0       0.0       0.0       0.5       0.2
  0N   1dx2y2          0.0       0.0       0.0       0.0       0.2       0.6
  0N   1dxy            0.0       0.0       0.0       0.0       0.2       0.0
  1H   1s              0.0       0.0       0.3       0.0       0.6       2.5
  1H   2s              0.3       0.1       0.2       4.7       0.3       1.0
  1H   3s             39.7      13.4       0.3       0.1       1.9       7.4
  1H   1px             0.1       0.0       0.1       1.2       0.0       0.0
  1H   1py             0.0       0.0       0.0       0.0       0.1       0.0
  2H   1s              0.0       0.0       0.3       0.0       1.0       2.2
  2H   2s              0.3       0.1       0.2       4.7       0.4       0.9
  2H   3s             39.9      13.2       0.3       0.1       2.8       6.4
  2H   1pz             0.0       0.0       0.0       0.5       0.0       0.0
  2H   1py             0.1       0.0       0.1       0.6       0.0       0.0
  3H   1s              0.0       0.1       0.3       0.0       3.2       0.0
  3H   2s              0.0       0.4       0.2       4.7       1.3       0.0
  3H   3s              0.0      53.1       0.3       0.1       9.2       0.0
  3H   1pz             0.0       0.0       0.0       0.3       0.0       0.0
  3H   1px             0.0       0.0       0.0       0.1       0.0       0.1
  3H   1py             0.0       0.1       0.1       0.8       0.0       0.0

                     12        13        14        15        16        17   
                   0.35938   0.35938   0.43835   1.14246   1.14246   1.14504
                   0.00000   0.00000   0.00000   0.00000   0.00000   0.00000
                  --------  --------  --------  --------  --------  --------
  0N   2s              0.0       0.0       3.0       0.0       0.0       0.2
  0N   1pz             0.1       1.6       2.8       0.2       0.0      34.6
  0N   1px             3.3       9.6       0.4       1.1       0.5       4.4
  0N   1py            11.1       3.3       0.0       0.5       1.3       0.3
  0N   3s              0.0       0.0       3.8       0.0       0.0       0.3
  0N   2pz             0.0       0.5       0.2       2.7       0.2      47.8
  0N   2px             1.0       3.0       0.0      15.3       6.5       6.0
  0N   2py             3.4       1.0       0.0       6.5      17.8       0.4
  0N   4s              0.0       0.0      23.2       0.0       0.0       0.0
  0N   3pz             0.0       0.1       0.0       0.4       0.0       1.1
  0N   3px             0.2       0.7       0.0       2.4       1.0       0.1
  0N   3py             0.8       0.2       0.0       1.0       2.8       0.0
  0N   1dz2            0.0       0.4       1.8       1.7       0.0       0.4
  0N   1dxz            0.0       0.3       0.8       0.8       0.1       0.2
  0N   1dyz            2.2       1.0       0.1       5.1       9.2       0.0
  0N   1dx2y2          1.3       2.6       0.0      12.5       7.5       0.0
  0N   1dxy            0.9       0.3       0.0       1.9       5.3       0.0
  1H   1s              0.8       2.3       3.1      10.4       4.4       0.0
  1H   2s              9.2      26.8      13.1       8.5       3.6       0.1
  1H   3s              0.7       2.0       0.2       0.5       0.2       0.0
  1H   1pz             0.0       0.3       0.7       0.3       0.0       1.2
  1H   1px             1.8       5.3       4.2       0.2       0.1       0.1
  1H   1py             1.0       0.3       0.0       1.0       2.7       0.0
  2H   1s              0.7       2.3       3.1      11.8       3.0       0.0
  2H   2s              8.8      27.2      13.1       9.7       2.5       0.1
  2H   3s              0.6       2.0       0.2       0.6       0.1       0.0
  2H   1pz             1.4       2.3       0.2       0.0       0.2       1.1
  2H   1px             1.2       0.0       1.2       1.2       1.5       0.2
  2H   1py             0.2       3.6       3.6       0.0       1.3       0.0
  3H   1s              3.1       0.0       3.1       0.0      14.8       0.0
  3H   2s             36.0       0.0      13.1       0.0      12.1       0.1
  3H   3s              2.6       0.0       0.2       0.0       0.7       0.0
  3H   1pz             2.3       0.2       0.0       0.4       0.1       1.1
  3H   1px             0.4       0.9       1.2       2.4       0.3       0.2
  3H   1py             4.7       0.3       3.8       0.9       0.2       0.0

                     18        19        20        21        22        23   
                   1.18169   1.18169   1.36289   1.54374   1.68266   1.68266
                   0.00000   0.00000   0.00000   0.00000   0.00000   0.00000
                  --------  --------  --------  --------  --------  --------
  0N   1s              0.0       0.0       0.1       0.0       0.0       0.0
  0N   2s              0.0       0.0      17.0      20.3       0.0       0.0
  0N   1pz             0.0       4.2       0.7       0.3       0.0       0.0
  0N   1px             2.7      28.9       0.1       0.0       0.0       0.0
  0N   1py            32.8       2.4       0.0       0.0       0.0       0.0
  0N   3s              0.0       0.0      12.1      35.3       0.0       0.0
  0N   2pz             0.0       3.6       0.5       0.4       0.1       0.0
  0N   2px             2.2      24.3       0.1       0.1       0.3       0.2
  0N   2py            27.6       2.0       0.0       0.0       0.2       0.4
  0N   4s              0.0       0.0       0.9       4.0       0.0       0.0
  0N   3pz             0.0       0.1       0.1       0.1       0.0       0.0
  0N   3px             0.1       0.8       0.0       0.0       0.0       0.0
  0N   3py             0.9       0.1       0.0       0.0       0.0       0.0
  0N   1dz2            0.0       0.1       2.2      13.1      11.7       2.8
  0N   1dxz            0.0       0.0       0.9       5.7      21.2      17.6
  0N   1dyz            1.2       0.2       0.1       0.4       3.5      15.4
  0N   1dx2y2          0.3       2.0       0.0       0.2       4.2       1.0
  0N   1dxy            1.0       0.1       0.0       0.1      17.9      21.8
  1H   1s              0.8       9.0      14.4       2.4       0.1       0.1
  1H   2s              0.7       7.2       6.4       1.9       0.0       0.0
  1H   3s              0.1       0.6       0.0       0.0       0.0       0.0
  1H   1pz             0.0       0.0       0.1       2.4       8.3       6.6
  1H   1px             0.2       2.2       0.9       0.0       0.0       0.0
  1H   1py             0.1       0.0       0.0       0.0       5.6       6.5
  2H   1s              4.6       5.2      14.4       2.4       0.1       0.0
  2H   2s              3.7       4.2       6.4       1.9       0.0       0.0
  2H   3s              0.3       0.4       0.0       0.0       0.0       0.0
  2H   1pz             0.3       0.4       0.1       1.5      10.0       0.2
  2H   1px             0.0       0.3       0.2       0.6       0.3      11.1
  2H   1py             0.9       0.6       0.7       0.4       4.2       1.2
  3H   1s              9.3       0.5      14.4       2.4       0.0       0.2
  3H   2s              7.4       0.4       6.4       1.9       0.0       0.1
  3H   3s              0.6       0.0       0.0       0.0       0.0       0.0
  3H   1pz             0.3       0.1       0.0       1.7       0.6      11.6
  3H   1px             0.2       0.1       0.2       0.6       9.2       2.2
  3H   1py             1.8       0.0       0.7       0.1       2.3       1.1

                     24        25        26        27        28        29   
                   2.14406   2.38803   2.58411   2.58411   2.70145   2.70145
                   0.00000   0.00000   0.00000   0.00000   0.00000   0.00000
                  --------  --------  --------  --------  --------  --------
  0N   2s              5.2       0.0       0.0       0.0       0.0       0.0
  0N   1pz             0.0       0.0       0.0       0.0       0.3       0.0
  0N   1px             0.0       0.0       0.1       0.0       2.1       0.5
  0N   1py             0.0       0.0       0.0       0.1       0.5       2.4
  0N   3s              9.5       0.0       0.0       0.0       0.0       0.0
  0N   2pz             3.4       0.0       0.6       0.0       0.1       0.0
  0N   2px             0.4       0.0       3.8       1.3       0.6       0.1
  0N   2py             0.0       0.0       1.3       4.4       0.1       0.6
  0N   1dz2           30.7       0.0       0.1       0.1       6.1       0.0
  0N   1dxz           13.4       0.0       0.5       0.4       5.2       0.7
  0N   1dyz            1.0       0.0       0.1       0.0       7.6      27.6
  0N   1dx2y2          0.4       0.0       2.2       0.8      22.8       8.9
  0N   1dxy            0.1       0.0       1.2       2.8       0.7       5.2
  1H   1s              4.3       0.0       1.7       0.6       4.1       1.0
  1H   2s              0.3       0.0       0.2       0.1       1.1       0.3
  1H   1pz             4.9       0.3      27.7       7.1       6.6       1.2
  1H   1px             2.4       0.0       5.3       1.8      15.7       3.8
  1H   1py             0.0      33.0       2.2      13.3       0.1       1.8
  2H   1s              4.3       0.0       1.8       0.6       3.5       1.6
  2H   2s              0.3       0.0       0.2       0.1       1.0       0.4
  2H   1pz             6.9       1.9       5.8       5.9      13.6       8.3
  2H   1px             0.3      22.2      22.8       0.9       0.3       1.0
  2H   1py             0.1       9.2       7.0      14.9       5.6       0.5
  3H   1s              4.3       0.0       0.0       2.4       0.0       5.1
  3H   2s              0.3       0.0       0.0       0.3       0.0       1.4
  3H   1pz             6.3       3.7       1.8      16.1       0.0      17.3
  3H   1px             0.3      22.2      10.0      13.7       1.3       0.0
  3H   1py             0.7       7.4       3.5      12.2       0.8       9.9

                     30        31        32        33        34        35   
                   3.14133   3.28047   3.28047   3.65536   3.83300   3.83300
                   0.00000   0.00000   0.00000   0.00000   0.00000   0.00000
                  --------  --------  --------  --------  --------  --------
  0N   2s              0.0       0.0       0.0       9.3       0.0       0.0
  0N   1pz             0.2       0.0       0.0       3.5       1.1       0.1
  0N   1px             0.0       0.0       0.0       0.4       6.3       2.4
  0N   1py             0.0       0.0       0.0       0.0       2.4       7.3
  0N   3s              0.2       0.0       0.0       8.4       0.0       0.0
  0N   2pz             3.3       0.0       0.2       0.4       0.4       0.0
  0N   2px             0.4       0.1       1.1       0.1       2.2       0.8
  0N   2py             0.0       1.2       0.1       0.0       0.8       2.5
  0N   4s              0.2       0.0       0.0       0.1       0.0       0.0
  0N   1dz2           17.5       0.1       6.3       1.7       2.9       0.0
  0N   1dxz            7.6       3.2      17.8       0.7       2.1       0.4
  0N   1dyz            0.6       4.4       0.0       0.1       5.9      13.0
  0N   1dx2y2          0.2       0.6      11.3       0.0      12.4       7.1
  0N   1dxy            0.1      31.3       4.2       0.0       1.0       3.7
  1H   1s              0.0       0.0       0.0       2.2       7.9       3.0
  1H   2s              0.1       0.0       0.0       0.5       0.5       0.2
  1H   1pz            22.8       1.6       6.5       0.0       0.1       0.0
  1H   1px             0.2       0.0       0.0      22.4      21.3       8.1
  1H   1py             0.2      27.9       3.2       0.0       0.1       0.2
  2H   1s              0.0       0.0       0.0       2.2       8.5       2.5
  2H   2s              0.1       0.0       0.0       0.5       0.5       0.2
  2H   1pz            13.1       0.5       6.9       7.1       7.6       2.6
  2H   1px             5.8      17.3       5.2       2.4       1.6       1.4
  2H   1py             4.3       2.2       7.2      13.0      13.8       2.8
  3H   1s              0.0       0.0       0.0       2.2       0.0      10.9
  3H   2s              0.1       0.0       0.0       0.5       0.0       0.7
  3H   3s              0.0       0.0       0.0       0.0       0.0       0.1
  3H   1pz            15.6       3.8       5.9       3.7       0.1       5.5
  3H   1px             5.8       5.5      17.0       2.4       0.2       2.8
  3H   1py             1.8       0.1       7.0      16.4       0.0      21.2



                      *****************************
                      * MAYER POPULATION ANALYSIS *
                      *****************************

  NA   - Mulliken gross atomic population
  ZA   - Total nuclear charge
  QA   - Mulliken gross atomic charge
  VA   - Mayer's total valence
  BVA  - Mayer's bonded valence
  FA   - Mayer's free valence

  ATOM       NA         ZA         QA         VA         BVA        FA
  0 N      7.8366     7.0000    -0.8366     2.7462     2.7462    -0.0000
  1 H      0.7211     1.0000     0.2789     0.8929     0.8929     0.0000
  2 H      0.7211     1.0000     0.2789     0.8929     0.8929    -0.0000
  3 H      0.7211     1.0000     0.2789     0.8929     0.8929    -0.0000

  Mayer bond orders larger than 0.100000
B(  0-N ,  1-H ) :   0.9154 B(  0-N ,  2-H ) :   0.9154 B(  0-N ,  3-H ) :   0.9154 


-------
TIMINGS
-------

Total SCF time: 0 days 0 hours 0 min 1 sec 

Total time                  ....       1.616 sec
Sum of individual times     ....       1.426 sec  ( 88.3%)

Fock matrix formation       ....       1.249 sec  ( 77.3%)
Diagonalization             ....       0.002 sec  (  0.1%)
Density matrix formation    ....       0.000 sec  (  0.0%)
Population analysis         ....       0.007 sec  (  0.4%)
Initial guess               ....       0.128 sec  (  7.9%)
Orbital Transformation      ....       0.000 sec  (  0.0%)
Orbital Orthonormalization  ....       0.000 sec  (  0.0%)
DIIS solution               ....       0.001 sec  (  0.1%)
SOSCF solution              ....       0.022 sec  (  1.4%)

-------------------------   --------------------
FINAL SINGLE POINT ENERGY       -56.199865073554
-------------------------   --------------------

------------------------------------------------------------------------------
                         ORCA SCF GRADIENT CALCULATION
------------------------------------------------------------------------------

Gradient of the Hartree-Fock SCF energy:
Hartree-Fock type                ... RHF
Number of operators              ...    1
Number of atoms                  ...    4
Basis set dimensions             ...   36
Integral neglect threshold       ... 2.5e-11
Integral primitive cutoff        ... 2.5e-12

Nuclear repulsion gradient       ... done
One Electron Gradient            ... done
Pre-screening matrix             ... done
Starting the two electron gradient:
Two electron gradient done

------------------
CARTESIAN GRADIENT
------------------

   1   N   :   -0.008121248   -0.002194109    0.022865275
   2   H   :    0.014398606    0.000336553   -0.003507069
   3   H   :   -0.003138656   -0.009761476   -0.010704916
   4   H   :   -0.003138702    0.011619031   -0.008653289

Difference to translation invariance:
           :   -0.0000000000    0.0000000000   -0.0000000000

Norm of the cartesian gradient     ...    0.0353947423
RMS gradient                       ...    0.0102175820
MAX gradient                       ...    0.0228652746

-------
TIMINGS
-------

Total SCF gradient time            ...        0.230 sec

One electron gradient       ....       0.003 sec  (  1.5%)
Prescreening matrices       ....       0.006 sec  (  2.7%)
Two electron gradient       ....       0.076 sec  ( 33.2%)
------------------------------------------------------------------------------
                         ORCA GEOMETRY RELAXATION STEP
------------------------------------------------------------------------------

Reading the OPT-File                    .... done
Getting information on internals        .... done
Copying old internal coords+grads       .... done
Making the new internal coordinates     .... (new redundants).... done
Validating the new internal coordinates .... (new redundants).... done
Calculating the B-matrix                .... done
Calculating the G,G- and P matrices     .... done
Transforming gradient to internals      .... done
Projecting the internal gradient        .... done
Number of atoms                         ....   4
Number of internal coordinates          ....   7
Current Energy                          ....   -56.199865074 Eh
Current gradient norm                   ....     0.035394742 Eh/bohr
Maximum allowed component of the step   ....  0.300
Current trust radius                    ....  0.300
Evaluating the initial hessian          ....  (Almloef) done
Projecting the Hessian                  .... done
Forming the augmented Hessian           .... done
Diagonalizing the augmented Hessian     .... done
Last element of RFO vector              ....  0.997354245
Lowest eigenvalues of augmented Hessian:
 -0.001726568  0.112300257  0.300074336  0.300099772  0.418635453
Length of the computed step             ....  0.072887475
The final length of the internal step   ....  0.072887475
Converting the step to cartesian space:
 Initial RMS(Int)=    0.0275488759
Transforming coordinates:
 Iter   0:  RMS(Cart)=    0.0144054021 RMS(Int)=    0.0276072214
 Iter   1:  RMS(Cart)=    0.0001866900 RMS(Int)=    0.0003009690
 Iter   2:  RMS(Cart)=    0.0000037378 RMS(Int)=    0.0000052053
 Iter   3:  RMS(Cart)=    0.0000000534 RMS(Int)=    0.0000000715
done
Storing new coordinates                 .... done

                                .--------------------.
          ----------------------|Geometry convergence|-------------------------
          Item                value                   Tolerance       Converged
          ---------------------------------------------------------------------
          RMS gradient        0.0097556253            0.0001000000      NO
          MAX gradient        0.0145767428            0.0003000000      NO
          RMS step            0.0275488759            0.0020000000      NO
          MAX step            0.0346766409            0.0040000000      NO
          ........................................................
          Max(Bonds)      0.0184      Max(Angles)    0.87
          Max(Dihed)        0.00      Max(Improp)    1.84
          ---------------------------------------------------------------------

The optimization has not yet converged - more geometry cycles are needed


    ---------------------------------------------------------------------------
                         Redundant Internal Coordinates
                            (Angstroem and degrees)

        Definition                    Value    dE/dq     Step     New-Value
    ----------------------------------------------------------------------------
     1. B(H   1,N   0)                1.0190  0.014577 -0.0184    1.0006   
     2. B(H   2,N   0)                1.0190  0.014577 -0.0184    1.0006   
     3. B(H   3,N   0)                1.0190  0.014577 -0.0184    1.0006   
     4. A(H   1,N   0,H   3)          106.00 -0.001381    0.86    106.85   
     5. A(H   2,N   0,H   3)          106.00 -0.003412    0.87    106.87   
     6. A(H   1,N   0,H   2)          106.00 -0.001381    0.86    106.85   
     7. I(H   1,H   3,H   2,N   0)    -62.75 -0.003648    1.84    -60.91   
    ----------------------------------------------------------------------------

         *************************************************************
         *                GEOMETRY OPTIMIZATION CYCLE   2            *
         *************************************************************
---------------------------------
CARTESIAN COORDINATES (ANGSTROEM)
---------------------------------
  N     -6.433366    2.343684    0.024267
  H     -5.433676    2.347870   -0.019334
  H     -6.745829    1.592162   -0.557869
  H     -6.745832    3.192193   -0.404334

----------------------------
CARTESIAN COORDINATES (A.U.)
----------------------------
  NO LB      ZA    FRAG     MASS         X           Y           Z
   0 N     7.0000    0    14.007  -12.157300    4.428921    0.045857
   1 H     1.0000    0     1.008  -10.268159    4.436831   -0.036536
   2 H     1.0000    0     1.008  -12.747770    3.008750   -1.054219
   3 H     1.0000    0     1.008  -12.747775    6.032370   -0.764080

--------------------------------
INTERNAL COORDINATES (ANGSTROEM)
--------------------------------
 N      0   0   0     0.000000000000     0.00000000     0.00000000
 H      1   0   0     1.000649919214     0.00000000     0.00000000
 H      1   2   0     1.000649915866   106.84321487     0.00000000
 H      1   2   3     1.000649912998   106.84321362   245.89533620

---------------------------
INTERNAL COORDINATES (A.U.)
---------------------------
 N      0   0   0     0.000000000000     0.00000000     0.00000000
 H      1   0   0     1.890954303246     0.00000000     0.00000000
 H      1   2   0     1.890954296917   106.84321487     0.00000000
 H      1   2   3     1.890954291498   106.84321362   245.89533620


Diagonalization of the overlap matrix:
Smallest eigenvalue                        ... 9.693e-03
Time for diagonalization                   ...    0.001 sec
Threshold for overlap eigenvalues          ... 1.000e-08
Number of eigenvalues below threshold      ... 0
Time for construction of square roots      ...    0.000 sec
Total time needed                          ...    0.002 sec

--------------
SCF ITERATIONS
--------------
ITER       Energy         Delta-E        Max-DP      RMS-DP      [F,P]     Damp
               ***  Starting incremental Fock matrix formation  ***
  0    -56.2004482246   0.000000000000 0.00288085  0.00020207  0.0115838 0.7000
                      *** Initiating the SOSCF procedure ***
                      *** Re-Reading the Fockian *** 
                      *** Removing any level shift *** 
ITER      Energy       Delta-E        Grad      Rot      Max-DP    RMS-DP
  1    -56.20053777  -0.0000895417  0.001093  0.001093  0.007904  0.000562
               *** Restarting incremental Fock matrix formation ***
  2    -56.20074850  -0.0002107372  0.002096  0.001466  0.002997  0.000233
  3    -56.20076884  -0.0000203335  0.000650  0.000715  0.001447  0.000104
  4    -56.20077397  -0.0000051360  0.000156  0.000356  0.000673  0.000042
  5    -56.20077430  -0.0000003317  0.000031  0.000096  0.000149  0.000009
  6    -56.20077432  -0.0000000193  0.000008  0.000020  0.000016  0.000001
                 **** Energy Check signals convergence ****
              ***Rediagonalizing the Fockian in SOSCF/NRSCF***

               *****************************************************
               *                     SUCCESS                       *
               *           SCF CONVERGED AFTER   7 CYCLES          *
               *****************************************************

Total Energy       :          -56.20077433 Eh           -1529.30082 eV
  Last Energy change         ...   -1.3287e-09  Tolerance :   1.0000e-08
  Last MAX-Density change    ...    5.0043e-06  Tolerance :   1.0000e-07
             **** THE GBW FILE WAS UPDATED (actividad2_Q2002B.gbw) ****
             **** DENSITY FILE WAS UPDATED (actividad2_Q2002B.scfp) ****
             **** ENERGY FILE WAS UPDATED (actividad2_Q2002B.en.tmp) ****
             **** THE GBW FILE WAS UPDATED (actividad2_Q2002B.gbw) ****
             **** DENSITY FILE WAS UPDATED (actividad2_Q2002B.scfp) ****
Total SCF time: 0 days 0 hours 0 min 1 sec 

-------------------------   --------------------
FINAL SINGLE POINT ENERGY       -56.200774325225
-------------------------   --------------------

------------------------------------------------------------------------------
                         ORCA SCF GRADIENT CALCULATION
------------------------------------------------------------------------------

Gradient of the Hartree-Fock SCF energy:
Hartree-Fock type                ... RHF
Number of operators              ...    1
Number of atoms                  ...    4
Basis set dimensions             ...   36
Integral neglect threshold       ... 2.5e-11
Integral primitive cutoff        ... 2.5e-12

Nuclear repulsion gradient       ... done
One Electron Gradient            ... done
Pre-screening matrix             ... done
Starting the two electron gradient:
Two electron gradient done

------------------
CARTESIAN GRADIENT
------------------

   1   N   :   -0.001964946   -0.000519339    0.005412153
   2   H   :   -0.001505824    0.000247138   -0.002575507
   3   H   :    0.001735380    0.002072657   -0.001232497
   4   H   :    0.001735390   -0.001800457   -0.001604149

Difference to translation invariance:
           :   -0.0000000000    0.0000000000    0.0000000000

Norm of the cartesian gradient     ...    0.0077483525
RMS gradient                       ...    0.0022367567
MAX gradient                       ...    0.0054121530

-------
TIMINGS
-------

Total SCF gradient time            ...        0.216 sec

One electron gradient       ....       0.003 sec  (  1.3%)
Prescreening matrices       ....       0.005 sec  (  2.2%)
Two electron gradient       ....       0.067 sec  ( 31.2%)
------------------------------------------------------------------------------
                         ORCA GEOMETRY RELAXATION STEP
------------------------------------------------------------------------------

Reading the OPT-File                    .... done
Getting information on internals        .... done
Copying old internal coords+grads       .... done
Making the new internal coordinates     .... (new redundants).... done
Validating the new internal coordinates .... (new redundants).... done
Calculating the B-matrix                .... done
Calculating the G,G- and P matrices     .... done
Transforming gradient to internals      .... done
Projecting the internal gradient        .... done
Number of atoms                         ....   4
Number of internal coordinates          ....   7
Current Energy                          ....   -56.200774325 Eh
Current gradient norm                   ....     0.007748353 Eh/bohr
Maximum allowed component of the step   ....  0.300
Current trust radius                    ....  0.300
Updating the Hessian (BFGS)             .... done
Forming the augmented Hessian           .... done
Diagonalizing the augmented Hessian     .... done
Last element of RFO vector              ....  0.998888552
Lowest eigenvalues of augmented Hessian:
 -0.000226465  0.089948686  0.290795870  0.300074337  0.418635343
Length of the computed step             ....  0.047186940
The final length of the internal step   ....  0.047186940
Converting the step to cartesian space:
 Initial RMS(Int)=    0.0178349870
Transforming coordinates:
 Iter   0:  RMS(Cart)=    0.0084761553 RMS(Int)=    0.0178184359
 Iter   1:  RMS(Cart)=    0.0001070564 RMS(Int)=    0.0001545970
 Iter   2:  RMS(Cart)=    0.0000013808 RMS(Int)=    0.0000023980
 Iter   3:  RMS(Cart)=    0.0000000279 RMS(Int)=    0.0000000426
done
Storing new coordinates                 .... done

                                .--------------------.
          ----------------------|Geometry convergence|-------------------------
          Item                value                   Tolerance       Converged
          ---------------------------------------------------------------------
          Energy change      -0.0009092517            0.0000050000      NO
          RMS gradient        0.0021453167            0.0001000000      NO
          MAX gradient        0.0035936209            0.0003000000      NO
          RMS step            0.0178349870            0.0020000000      NO
          MAX step            0.0366953207            0.0040000000      NO
          ........................................................
          Max(Bonds)      0.0006      Max(Angles)    0.98
          Max(Dihed)        0.00      Max(Improp)    2.10
          ---------------------------------------------------------------------

The optimization has not yet converged - more geometry cycles are needed


    ---------------------------------------------------------------------------
                         Redundant Internal Coordinates
                            (Angstroem and degrees)

        Definition                    Value    dE/dq     Step     New-Value
    ----------------------------------------------------------------------------
     1. B(H   1,N   0)                1.0006 -0.001391 -0.0005    1.0001   
     2. B(H   2,N   0)                1.0006 -0.001382 -0.0006    1.0001   
     3. B(H   3,N   0)                1.0006 -0.001382 -0.0006    1.0001   
     4. A(H   1,N   0,H   3)          106.84 -0.001304    0.98    107.83   
     5. A(H   2,N   0,H   3)          106.87 -0.003185    0.97    107.84   
     6. A(H   1,N   0,H   2)          106.84 -0.001304    0.98    107.83   
     7. I(H   1,H   3,H   2,N   0)    -60.90 -0.003594    2.10    -58.80   
    ----------------------------------------------------------------------------

         *************************************************************
         *                GEOMETRY OPTIMIZATION CYCLE   3            *
         *************************************************************
---------------------------------
CARTESIAN COORDINATES (ANGSTROEM)
---------------------------------
  N     -6.429761    2.344671    0.013986
  H     -5.430053    2.347379   -0.014222
  H     -6.749443    1.587415   -0.555716
  H     -6.749446    3.196443   -0.401317

----------------------------
CARTESIAN COORDINATES (A.U.)
----------------------------
  NO LB      ZA    FRAG     MASS         X           Y           Z
   0 N     7.0000    0    14.007  -12.150487    4.430785    0.026430
   1 H     1.0000    0     1.008  -10.261314    4.435904   -0.026876
   2 H     1.0000    0     1.008  -12.754599    2.999780   -1.050151
   3 H     1.0000    0     1.008  -12.754604    6.040403   -0.758380

--------------------------------
INTERNAL COORDINATES (ANGSTROEM)
--------------------------------
 N      0   0   0     0.000000000000     0.00000000     0.00000000
 H      1   0   0     1.000108907455     0.00000000     0.00000000
 H      1   2   0     1.000096333565   107.78864659     0.00000000
 H      1   2   3     1.000096336117   107.78864600   243.85707691

---------------------------
INTERNAL COORDINATES (A.U.)
---------------------------
 N      0   0   0     0.000000000000     0.00000000     0.00000000
 H      1   0   0     1.889931939185     0.00000000     0.00000000
 H      1   2   0     1.889908177977   107.78864659     0.00000000
 H      1   2   3     1.889908182800   107.78864600   243.85707691


Diagonalization of the overlap matrix:
Smallest eigenvalue                        ... 1.010e-02
Time for diagonalization                   ...    0.001 sec
Threshold for overlap eigenvalues          ... 1.000e-08
Number of eigenvalues below threshold      ... 0
Time for construction of square roots      ...    0.000 sec
Total time needed                          ...    0.001 sec

--------------
SCF ITERATIONS
--------------
ITER       Energy         Delta-E        Max-DP      RMS-DP      [F,P]     Damp
               ***  Starting incremental Fock matrix formation  ***
  0    -56.2008858183   0.000000000000 0.00079049  0.00008162  0.0032667 0.7000
                      *** Initiating the SOSCF procedure ***
                      *** Re-Reading the Fockian *** 
                      *** Removing any level shift *** 
ITER      Energy       Delta-E        Grad      Rot      Max-DP    RMS-DP
  1    -56.20089974  -0.0000139258  0.000702  0.000702  0.002205  0.000229
               *** Restarting incremental Fock matrix formation ***
  2    -56.20093981  -0.0000400624  0.000828  0.000495  0.000955  0.000090
  3    -56.20094266  -0.0000028532  0.000212  0.000375  0.000744  0.000064
  4    -56.20094310  -0.0000004425  0.000069  0.000044  0.000082  0.000009
  5    -56.20094314  -0.0000000380  0.000017  0.000030  0.000040  0.000002
  6    -56.20094314  -0.0000000026  0.000004  0.000014  0.000014  0.000001
                 **** Energy Check signals convergence ****
              ***Rediagonalizing the Fockian in SOSCF/NRSCF***

               *****************************************************
               *                     SUCCESS                       *
               *           SCF CONVERGED AFTER   7 CYCLES          *
               *****************************************************

Total Energy       :          -56.20094314 Eh           -1529.30541 eV
  Last Energy change         ...   -2.6714e-10  Tolerance :   1.0000e-08
  Last MAX-Density change    ...    4.4791e-06  Tolerance :   1.0000e-07
             **** THE GBW FILE WAS UPDATED (actividad2_Q2002B.gbw) ****
             **** DENSITY FILE WAS UPDATED (actividad2_Q2002B.scfp) ****
             **** ENERGY FILE WAS UPDATED (actividad2_Q2002B.en.tmp) ****
             **** THE GBW FILE WAS UPDATED (actividad2_Q2002B.gbw) ****
             **** DENSITY FILE WAS UPDATED (actividad2_Q2002B.scfp) ****
Total SCF time: 0 days 0 hours 0 min 1 sec 

-------------------------   --------------------
FINAL SINGLE POINT ENERGY       -56.200943143115
-------------------------   --------------------

------------------------------------------------------------------------------
                         ORCA SCF GRADIENT CALCULATION
------------------------------------------------------------------------------

Gradient of the Hartree-Fock SCF energy:
Hartree-Fock type                ... RHF
Number of operators              ...    1
Number of atoms                  ...    4
Basis set dimensions             ...   36
Integral neglect threshold       ... 2.5e-11
Integral primitive cutoff        ... 2.5e-12

Nuclear repulsion gradient       ... done
One Electron Gradient            ... done
Pre-screening matrix             ... done
Starting the two electron gradient:
Two electron gradient done

------------------
CARTESIAN GRADIENT
------------------

   1   N   :   -0.000959419   -0.000237448    0.002474470
   2   H   :   -0.000986932    0.000125222   -0.001304989
   3   H   :    0.000973173    0.001196973   -0.000475266
   4   H   :    0.000973178   -0.001084747   -0.000694215

Difference to translation invariance:
           :   -0.0000000000    0.0000000000    0.0000000000

Norm of the cartesian gradient     ...    0.0038734937
RMS gradient                       ...    0.0011181813
MAX gradient                       ...    0.0024744700

-------
TIMINGS
-------

Total SCF gradient time            ...        0.220 sec

One electron gradient       ....       0.003 sec  (  1.3%)
Prescreening matrices       ....       0.005 sec  (  2.2%)
Two electron gradient       ....       0.069 sec  ( 31.4%)
------------------------------------------------------------------------------
                         ORCA GEOMETRY RELAXATION STEP
------------------------------------------------------------------------------

Reading the OPT-File                    .... done
Getting information on internals        .... done
Copying old internal coords+grads       .... done
Making the new internal coordinates     .... (new redundants).... done
Validating the new internal coordinates .... (new redundants).... done
Calculating the B-matrix                .... done
Calculating the G,G- and P matrices     .... done
Transforming gradient to internals      .... done
Projecting the internal gradient        .... done
Number of atoms                         ....   4
Number of internal coordinates          ....   7
Current Energy                          ....   -56.200943143 Eh
Current gradient norm                   ....     0.003873494 Eh/bohr
Maximum allowed component of the step   ....  0.300
Current trust radius                    ....  0.300
Updating the Hessian (BFGS)             .... done
Forming the augmented Hessian           .... done
Diagonalizing the augmented Hessian     .... done
Last element of RFO vector              ....  0.998934604
Lowest eigenvalues of augmented Hessian:
 -0.000112990  0.049120281  0.285825271  0.300074337  0.418635423
Length of the computed step             ....  0.046197428
The final length of the internal step   ....  0.046197428
Converting the step to cartesian space:
 Initial RMS(Int)=    0.0174609865
Transforming coordinates:
 Iter   0:  RMS(Cart)=    0.0084227264 RMS(Int)=    0.0174423608
 Iter   1:  RMS(Cart)=    0.0001016580 RMS(Int)=    0.0001491334
 Iter   2:  RMS(Cart)=    0.0000013354 RMS(Int)=    0.0000022816
 Iter   3:  RMS(Cart)=    0.0000000253 RMS(Int)=    0.0000000398
done
Storing new coordinates                 .... done

                                .--------------------.
          ----------------------|Geometry convergence|-------------------------
          Item                value                   Tolerance       Converged
          ---------------------------------------------------------------------
          Energy change      -0.0001688179            0.0000050000      NO
          RMS gradient        0.0011469376            0.0001000000      NO
          MAX gradient        0.0018470795            0.0003000000      NO
          RMS step            0.0174609865            0.0020000000      NO
          MAX step            0.0367352600            0.0040000000      NO
          ........................................................
          Max(Bonds)      0.0000      Max(Angles)    0.94
          Max(Dihed)        0.00      Max(Improp)    2.10
          ---------------------------------------------------------------------

The optimization has not yet converged - more geometry cycles are needed


    ---------------------------------------------------------------------------
                         Redundant Internal Coordinates
                            (Angstroem and degrees)

        Definition                    Value    dE/dq     Step     New-Value
    ----------------------------------------------------------------------------
     1. B(H   1,N   0)                1.0001 -0.000949  0.0000    1.0001   
     2. B(H   2,N   0)                1.0001 -0.000947  0.0000    1.0001   
     3. B(H   3,N   0)                1.0001 -0.000947  0.0000    1.0001   
     4. A(H   1,N   0,H   3)          107.79 -0.000645    0.94    108.72   
     5. A(H   2,N   0,H   3)          107.83 -0.001507    0.91    108.74   
     6. A(H   1,N   0,H   2)          107.79 -0.000645    0.94    108.72   
     7. I(H   1,H   3,H   2,N   0)    -58.76 -0.001847    2.10    -56.65   
    ----------------------------------------------------------------------------

         *************************************************************
         *                GEOMETRY OPTIMIZATION CYCLE   4            *
         *************************************************************
---------------------------------
CARTESIAN COORDINATES (ANGSTROEM)
---------------------------------
  N     -6.426197    2.345626    0.004034
  H     -5.426141    2.346888   -0.009104
  H     -6.753181    1.582594   -0.553739
  H     -6.753184    3.200801   -0.398460

----------------------------
CARTESIAN COORDINATES (A.U.)
----------------------------
  NO LB      ZA    FRAG     MASS         X           Y           Z
   0 N     7.0000    0    14.007  -12.143752    4.432590    0.007623
   1 H     1.0000    0     1.008  -10.253921    4.434976   -0.017204
   2 H     1.0000    0     1.008  -12.761663    2.990669   -1.046415
   3 H     1.0000    0     1.008  -12.761668    6.048637   -0.752980

--------------------------------
INTERNAL COORDINATES (ANGSTROEM)
--------------------------------
 N      0   0   0     0.000000000000     0.00000000     0.00000000
 H      1   0   0     1.000142989295     0.00000000     0.00000000
 H      1   2   0     1.000123450939   108.69632348     0.00000000
 H      1   2   3     1.000123448268   108.69632337   241.81547104

---------------------------
INTERNAL COORDINATES (A.U.)
---------------------------
 N      0   0   0     0.000000000000     0.00000000     0.00000000
 H      1   0   0     1.889996344529     0.00000000     0.00000000
 H      1   2   0     1.889959422387   108.69632348     0.00000000
 H      1   2   3     1.889959417339   108.69632337   241.81547104


Diagonalization of the overlap matrix:
Smallest eigenvalue                        ... 1.051e-02
Time for diagonalization                   ...    0.001 sec
Threshold for overlap eigenvalues          ... 1.000e-08
Number of eigenvalues below threshold      ... 0
Time for construction of square roots      ...    0.000 sec
Total time needed                          ...    0.001 sec

--------------
SCF ITERATIONS
--------------
ITER       Energy         Delta-E        Max-DP      RMS-DP      [F,P]     Damp
               ***  Starting incremental Fock matrix formation  ***
  0    -56.2009487652   0.000000000000 0.00087748  0.00008053  0.0032116 0.7000
                      *** Initiating the SOSCF procedure ***
                      *** Re-Reading the Fockian *** 
                      *** Removing any level shift *** 
ITER      Energy       Delta-E        Grad      Rot      Max-DP    RMS-DP
  1    -56.20096200  -0.0000132356  0.000700  0.000700  0.002188  0.000225
               *** Restarting incremental Fock matrix formation ***
  2    -56.20100038  -0.0000383766  0.000824  0.000501  0.000921  0.000084
  3    -56.20100301  -0.0000026368  0.000211  0.000367  0.000723  0.000062
  4    -56.20100341  -0.0000003947  0.000058  0.000045  0.000095  0.000010
  5    -56.20100344  -0.0000000335  0.000018  0.000025  0.000028  0.000002
  6    -56.20100344  -0.0000000026  0.000004  0.000015  0.000015  0.000001
                 **** Energy Check signals convergence ****
              ***Rediagonalizing the Fockian in SOSCF/NRSCF***

               *****************************************************
               *                     SUCCESS                       *
               *           SCF CONVERGED AFTER   7 CYCLES          *
               *****************************************************

Total Energy       :          -56.20100345 Eh           -1529.30705 eV
  Last Energy change         ...   -2.8976e-10  Tolerance :   1.0000e-08
  Last MAX-Density change    ...    4.3567e-06  Tolerance :   1.0000e-07
             **** THE GBW FILE WAS UPDATED (actividad2_Q2002B.gbw) ****
             **** DENSITY FILE WAS UPDATED (actividad2_Q2002B.scfp) ****
             **** ENERGY FILE WAS UPDATED (actividad2_Q2002B.en.tmp) ****
             **** THE GBW FILE WAS UPDATED (actividad2_Q2002B.gbw) ****
             **** DENSITY FILE WAS UPDATED (actividad2_Q2002B.scfp) ****
Total SCF time: 0 days 0 hours 0 min 1 sec 

-------------------------   --------------------
FINAL SINGLE POINT ENERGY       -56.201003445279
-------------------------   --------------------

------------------------------------------------------------------------------
                         ORCA SCF GRADIENT CALCULATION
------------------------------------------------------------------------------

Gradient of the Hartree-Fock SCF energy:
Hartree-Fock type                ... RHF
Number of operators              ...    1
Number of atoms                  ...    4
Basis set dimensions             ...   36
Integral neglect threshold       ... 2.5e-11
Integral primitive cutoff        ... 2.5e-12

Nuclear repulsion gradient       ... done
One Electron Gradient            ... done
Pre-screening matrix             ... done
Starting the two electron gradient:
Two electron gradient done

------------------
CARTESIAN GRADIENT
------------------

   1   N   :   -0.000164497   -0.000025661    0.000267439
   2   H   :    0.000014130    0.000011557   -0.000120441
   3   H   :    0.000075183    0.000011505   -0.000073072
   4   H   :    0.000075184    0.000002598   -0.000073925

Difference to translation invariance:
           :   -0.0000000000    0.0000000000   -0.0000000000

Norm of the cartesian gradient     ...    0.0003692282
RMS gradient                       ...    0.0001065870
MAX gradient                       ...    0.0002674391

-------
TIMINGS
-------

Total SCF gradient time            ...        0.227 sec

One electron gradient       ....       0.003 sec  (  1.3%)
Prescreening matrices       ....       0.005 sec  (  2.0%)
Two electron gradient       ....       0.072 sec  ( 31.8%)
------------------------------------------------------------------------------
                         ORCA GEOMETRY RELAXATION STEP
------------------------------------------------------------------------------

Reading the OPT-File                    .... done
Getting information on internals        .... done
Copying old internal coords+grads       .... done
Making the new internal coordinates     .... (new redundants).... done
Validating the new internal coordinates .... (new redundants).... done
Calculating the B-matrix                .... done
Calculating the G,G- and P matrices     .... done
Transforming gradient to internals      .... done
Projecting the internal gradient        .... done
Number of atoms                         ....   4
Number of internal coordinates          ....   7
Current Energy                          ....   -56.201003445 Eh
Current gradient norm                   ....     0.000369228 Eh/bohr
Maximum allowed component of the step   ....  0.300
Current trust radius                    ....  0.300
[...]
  0N   3s              0.1       0.0       0.0       7.9       0.0       0.0
  0N   2pz             3.1       0.2       0.0       0.2       0.0       0.3
  0N   2px             0.4       1.3       0.0       0.0       0.0       2.5
  0N   2py             0.0       0.0       1.4       0.0       2.8       0.0
  0N   4s              0.1       0.0       0.0       0.1       0.0       0.0
  0N   1dz2           16.2       6.5       0.1       2.6       0.4       1.5
  0N   1dxz            7.0      20.8       0.3       1.1       0.1       1.1
  0N   1dyz            0.5       0.6       4.2       0.1      15.4       0.1
  0N   1dx2y2          0.2      10.9       0.0       0.0       0.1      20.3
  0N   1dxy            0.1       0.2      34.2       0.0       6.9       0.0
  1H   1s              0.0       0.0       0.0       2.5       0.0      11.5
  1H   2s              0.1       0.1       0.0       0.4       0.0       0.7
  1H   3s              0.0       0.0       0.0       0.0       0.0       0.1
  1H   1pz            23.3       8.3       0.3       0.0       0.0       0.0
  1H   1px             0.3       0.1       0.0      21.6       0.0      29.6
  1H   1py             0.2       0.1      30.9       0.0       0.0       0.0
  2H   1s              0.0       0.0       0.0       2.5       8.6       2.9
  2H   2s              0.1       0.0       0.1       0.4       0.5       0.2
  2H   1pz            12.9       5.0       1.4       6.8       6.9       2.2
  2H   1px             6.1      10.3      12.6       2.3       2.6       0.6
  2H   1py             4.8      10.2       0.1      12.5      12.7       4.6
  3H   1s              0.0       0.0       0.0       2.5       8.6       2.9
  3H   2s              0.1       0.0       0.1       0.4       0.5       0.2
  3H   1pz            15.6       7.8       1.2       3.6       3.6       1.1
  3H   1px             6.1      10.3      12.6       2.3       2.6       0.6
  3H   1py             2.1       7.3       0.3      15.8      16.0       5.7



                      *****************************
                      * MAYER POPULATION ANALYSIS *
                      *****************************

  NA   - Mulliken gross atomic population
  ZA   - Total nuclear charge
  QA   - Mulliken gross atomic charge
  VA   - Mayer's total valence
  BVA  - Mayer's bonded valence
  FA   - Mayer's free valence

  ATOM       NA         ZA         QA         VA         BVA        FA
  0 N      7.8447     7.0000    -0.8447     2.7483     2.7483     0.0000
  1 H      0.7185     1.0000     0.2815     0.8941     0.8941    -0.0000
  2 H      0.7184     1.0000     0.2816     0.8941     0.8941     0.0000
  3 H      0.7184     1.0000     0.2816     0.8941     0.8941     0.0000

  Mayer bond orders larger than 0.100000
B(  0-N ,  1-H ) :   0.9161 B(  0-N ,  2-H ) :   0.9161 B(  0-N ,  3-H ) :   0.9161 


-------
TIMINGS
-------

Total SCF time: 0 days 0 hours 0 min 0 sec 

Total time                  ....       0.897 sec
Sum of individual times     ....       0.680 sec  ( 75.8%)

Fock matrix formation       ....       0.648 sec  ( 72.2%)
Diagonalization             ....       0.000 sec  (  0.0%)
Density matrix formation    ....       0.000 sec  (  0.0%)
Population analysis         ....       0.008 sec  (  0.9%)
Initial guess               ....       0.001 sec  (  0.1%)
Orbital Transformation      ....       0.000 sec  (  0.0%)
Orbital Orthonormalization  ....       0.000 sec  (  0.0%)
DIIS solution               ....       0.000 sec  (  0.0%)
SOSCF solution              ....       0.022 sec  (  2.4%)

-------------------------   --------------------
FINAL SINGLE POINT ENERGY       -56.201003901587
-------------------------   --------------------

                                *** OPTIMIZATION RUN DONE ***

                            ***************************************
                            *     ORCA property calculations      *
                            ***************************************

                                    ---------------------
                                    Active property flags
                                    ---------------------
   (+) Dipole Moment
   (+) Polarizability


------------------------------------------------------------------------------
                       ORCA ELECTRIC PROPERTIES CALCULATION
------------------------------------------------------------------------------

Dipole Moment Calculation                       ... on
Quadrupole Moment Calculation                   ... off
Polarizability Calculation                      ... Analytic (CP-SCF)
GBWName                                         ... actividad2_Q2002B.gbw
Electron density file                           ... actividad2_Q2002B.scfp
The origin for moment calculation is the CENTER OF MASS  = (-12.104490,  4.443167 -0.102606)

-------------
DIPOLE MOMENT
-------------
                                X             Y             Z
Electronic contribution:     -0.03419      -0.00922       0.09606
Nuclear contribution   :      0.26574       0.07176      -0.74785
                        -----------------------------------------
Total Dipole Moment    :      0.23155       0.06254      -0.65179
                        -----------------------------------------
Magnitude (a.u.)       :      0.69452
Magnitude (Debye)      :      1.76533



--------------------
Rotational spectrum 
--------------------
 
Rotational constants in cm-1:    10.357328    10.355626     6.324492 
Rotational constants in MHz : 310504.872039 310453.861089 189603.513881 

 Dipole components along the rotational axes: 
x,y,z [a.u.] :    -0.000000     0.000088    -0.694519 
x,y,z [Debye]:    -0.000000     0.000225    -1.765327 

 
Transforming and storing MO dipole integrals   ... done

                ... starting polarizability calculation

Opening the Dipole integral file               ... (actividad2_Q2002B.dmo.tmp) done
Reading Dipole-MO integrals                    ... done
Solving CP-SCF equations                       ... 
------------------------------------------------------------------------------
                           ORCA CP-SCF CALCULATION
------------------------------------------------------------------------------

Input orbitals are from        ... actividad2_Q2002B.gbw
Input Perturbation             ... actividad2_Q2002B.cpv.tmp
Wavefunction output            ... actividad2_Q2002B.cpu.tmp
Perturbation mode              ... Real perturbation (singlet)
Solver                         ... POPLE
Max. number of iterations      ... 64
Convergence tolerance          ... 1.000e-06
Integral handling              ... Direct
Number of perturbations        ... 3
Number of operators            ... 1
Orbital ranges used for CP-SCF:
 Operator 0:  Orbitals   0...  4  to   5... 35
Variables per vector in CP-SCF ... 155
Number of vectors sought       ... 3
     CP-SCF ITERATION   0: 
     CP-SCF ITERATION   1:      0.045314641206
     CP-SCF ITERATION   2:      0.002622841938
     CP-SCF ITERATION   3:      0.000059952066
     CP-SCF ITERATION   4:      0.000002434271
     CP-SCF ITERATION   5:      0.000000091965
done
Reading CP-SCF coefficients                    ... done
Doing the polarizability tensor                ... done
Cleaning up                                    ... done

-------------------------
THE POLARIZABILITY TENSOR
-------------------------

The raw cartesian tensor (atomic units):
    9.82095      0.00330     -0.03441  
    0.00330      9.81021     -0.00919  
   -0.03441     -0.00919      9.90597  
diagonalized tensor: 
    9.80877      9.80933      9.91903  

    0.94199     -0.04642     -0.33242  
   -0.08046     -0.99274     -0.08938  
    0.32586     -0.11094      0.93889  

Isotropic polarizability :   9.84571


----------------------------------------------------------------------------
                           ORCA NUMERICAL FREQUENCIES
----------------------------------------------------------------------------

Number of atoms                ... 4
Central differences            ... used
Number of displacements        ... 24
Numerical increment            ... 5.000e-03 bohr
IR-spectrum generation         ... on
Raman-spectrum generation      ... on
Polarizability calculation     ... 1
Surface Crossing Hessian       ... off

The output will be reduced. Please look at the following files:
SCF program output             ... >actividad2_Q2002B.lastscf
Integral program output        ... >actividad2_Q2002B.lastint
Gradient program output        ... >actividad2_Q2002B.lastgrad
Dipole moment program output   ... >actividad2_Q2002B.lastmom
AutoCI program output          ... >actividad2_Q2002B.lastautoci


         <<< Energy and Gradient at the input geometry >>>

        <<< Energy and Gradient at displaced geometries >>>
             <<<Displacing   1/coordinate 1 (+)>>>
             <<<Displacing   1/coordinate 1 (-)>>>
             <<<Displacing   1/coordinate 2 (+)>>>
             <<<Displacing   1/coordinate 2 (-)>>>
             <<<Displacing   1/coordinate 3 (+)>>>
             <<<Displacing   1/coordinate 3 (-)>>>
             <<<Displacing   2/coordinate 1 (+)>>>
             <<<Displacing   2/coordinate 1 (-)>>>
             <<<Displacing   2/coordinate 2 (+)>>>
             <<<Displacing   2/coordinate 2 (-)>>>
             <<<Displacing   2/coordinate 3 (+)>>>
             <<<Displacing   2/coordinate 3 (-)>>>
             <<<Displacing   3/coordinate 1 (+)>>>
             <<<Displacing   3/coordinate 1 (-)>>>
             <<<Displacing   3/coordinate 2 (+)>>>
             <<<Displacing   3/coordinate 2 (-)>>>
             <<<Displacing   3/coordinate 3 (+)>>>
             <<<Displacing   3/coordinate 3 (-)>>>
             <<<Displacing   4/coordinate 1 (+)>>>
             <<<Displacing   4/coordinate 1 (-)>>>
             <<<Displacing   4/coordinate 2 (+)>>>
             <<<Displacing   4/coordinate 2 (-)>>>
             <<<Displacing   4/coordinate 3 (+)>>>
             <<<Displacing   4/coordinate 3 (-)>>>

-----------------------
VIBRATIONAL FREQUENCIES
-----------------------

Scaling factor for frequencies =  1.000000000 (already applied!)

   0:         0.00 cm**-1
   1:         0.00 cm**-1
   2:         0.00 cm**-1
   3:         0.00 cm**-1
   4:         0.00 cm**-1
   5:         0.00 cm**-1
   6:      1087.42 cm**-1
   7:      1801.04 cm**-1
   8:      1801.22 cm**-1
   9:      3714.69 cm**-1
  10:      3860.19 cm**-1
  11:      3860.49 cm**-1


------------
NORMAL MODES
------------

These modes are the cartesian displacements weighted by the diagonal matrix
M(i,i)=1/sqrt(m[i]) where m[i] is the mass of the displaced atom
Thus, these vectors are normalized but *not* orthogonal

                  0          1          2          3          4          5    
      0       0.000000   0.000000   0.000000   0.000000   0.000000   0.000000
      1       0.000000   0.000000   0.000000   0.000000   0.000000   0.000000
      2       0.000000   0.000000   0.000000   0.000000   0.000000   0.000000
      3       0.000000   0.000000   0.000000   0.000000   0.000000   0.000000
      4       0.000000   0.000000   0.000000   0.000000   0.000000   0.000000
      5       0.000000   0.000000   0.000000   0.000000   0.000000   0.000000
      6       0.000000   0.000000   0.000000   0.000000   0.000000   0.000000
      7       0.000000   0.000000   0.000000   0.000000   0.000000   0.000000
      8       0.000000   0.000000   0.000000   0.000000   0.000000   0.000000
      9       0.000000   0.000000   0.000000   0.000000   0.000000   0.000000
     10       0.000000   0.000000   0.000000   0.000000   0.000000   0.000000
     11       0.000000   0.000000   0.000000   0.000000   0.000000   0.000000
                  6          7          8          9         10         11    
      0      -0.038813   0.008701   0.064098  -0.011924   0.076056   0.004306
      1      -0.010487   0.067382  -0.011354  -0.003201  -0.007121   0.080174
      2       0.109249   0.009563   0.021687   0.033315   0.026373   0.009227
      3      -0.004220   0.006429   0.047569   0.577130  -0.811671  -0.045913
      4       0.054822  -0.761926   0.077989  -0.002835  -0.001328   0.017116
      5      -0.570762  -0.037431   0.270536   0.029055   0.003571   0.001859
      6       0.271748   0.368074  -0.527765  -0.205664  -0.108995  -0.246963
      7       0.213596  -0.029127   0.424557  -0.452707  -0.289241  -0.552621
      8      -0.457537  -0.102011  -0.240915  -0.291677  -0.198427  -0.402058
      9       0.271817  -0.495418  -0.410502  -0.205767  -0.136190   0.233042
     10      -0.122698  -0.145272  -0.344779   0.500023   0.389528  -0.578579
     11      -0.489803   0.006553  -0.330980  -0.200318  -0.171613   0.271978


-----------
IR SPECTRUM  
-----------

 Mode    freq (cm**-1)   T**2         TX         TY         TZ
-------------------------------------------------------------------
   6:      1087.42  263.920821  (  5.422644   1.466619 -15.243516)
   7:      1801.04   31.494005  ( -0.715124  -5.511768  -0.776540)
   8:      1801.22   31.531041  ( -5.245125   0.931853  -1.775204)
   9:      3714.69    0.142832  ( -0.130888  -0.034596   0.352850)
  10:      3860.19    5.767402  ( -2.260544   0.211712  -0.782636)
  11:      3860.49    5.815469  ( -0.128441  -2.392560  -0.273182)

--------------
RAMAN SPECTRUM  
--------------

 Mode    freq (cm**-1)   Activity   Depolarization
-------------------------------------------------------------------
   6:      1087.42      2.140062      0.727486
   7:      1801.04      5.738209      0.749996
   8:      1801.22      5.732585      0.750000
   9:      3714.69    126.638351      0.044804
  10:      3860.19     56.005610      0.749997
  11:      3860.49     55.987331      0.750000

The first frequency considered to be a vibration is 6
The total number of vibrations considered is 6


--------------------------
THERMOCHEMISTRY AT 298.15K
--------------------------

Temperature         ... 298.15 K
Pressure            ... 1.00 atm
Total Mass          ... 17.03 AMU

Throughout the following assumptions are being made:
  (1) The electronic state is orbitally nondegenerate
  (2) There are no thermally accessible electronically excited states
  (3) Hindered rotations indicated by low frequency modes are not
      treated as such but are treated as vibrations and this may
      cause some error
  (4) All equations used are the standard statistical mechanics
      equations for an ideal gas
  (5) All vibrations are strictly harmonic

freq.    1087.42  E(vib)   ...       0.02 
freq.    1801.04  E(vib)   ...       0.00 
freq.    1801.22  E(vib)   ...       0.00 
freq.    3714.69  E(vib)   ...       0.00 
freq.    3860.19  E(vib)   ...       0.00 
freq.    3860.49  E(vib)   ...       0.00 

------------
INNER ENERGY
------------

The inner energy is: U= E(el) + E(ZPE) + E(vib) + E(rot) + E(trans)
    E(el)   - is the total energy from the electronic structure calculation
              = E(kin-el) + E(nuc-el) + E(el-el) + E(nuc-nuc)
    E(ZPE)  - the the zero temperature vibrational energy from the frequency calculation
    E(vib)  - the the finite temperature correction to E(ZPE) due to population
              of excited vibrational states
    E(rot)  - is the rotational thermal energy
    E(trans)- is the translational thermal energy

Summary of contributions to the inner energy U:
Electronic energy                ...    -56.20100390 Eh
Zero point energy                ...      0.03673558 Eh      23.05 kcal/mol
Thermal vibrational correction   ...      0.00002896 Eh       0.02 kcal/mol
Thermal rotational correction    ...      0.00141627 Eh       0.89 kcal/mol
Thermal translational correction ...      0.00141627 Eh       0.89 kcal/mol
-----------------------------------------------------------------------
Total thermal energy                    -56.16140681 Eh


Summary of corrections to the electronic energy:
(perhaps to be used in another calculation)
Total thermal correction                  0.00286151 Eh       1.80 kcal/mol
Non-thermal (ZPE) correction              0.03673558 Eh      23.05 kcal/mol
-----------------------------------------------------------------------
Total correction                          0.03959709 Eh      24.85 kcal/mol


--------
ENTHALPY
--------

The enthalpy is H = U + kB*T
                kB is Boltzmann's constant
Total free energy                 ...    -56.16140681 Eh 
Thermal Enthalpy correction       ...      0.00094421 Eh       0.59 kcal/mol
-----------------------------------------------------------------------
Total Enthalpy                    ...    -56.16046260 Eh


Note: Rotational entropy computed according to Herzberg 
Infrared and Raman Spectra, Chapter V,1, Van Nostrand Reinhold, 1945 
Point Group:  Cs, Symmetry Number:   1  
Rotational constants in cm-1:    10.357328    10.355626     6.324492 

Vibrational entropy computed according to the QRRHO of S. Grimme
Chem.Eur.J. 2012 18 9955


-------
ENTROPY
-------

The entropy contributions are T*S = T*(S(el)+S(vib)+S(rot)+S(trans))
     S(el)   - electronic entropy
     S(vib)  - vibrational entropy
     S(rot)  - rotational entropy
     S(trans)- translational entropy
The entropies will be listed as mutliplied by the temperature to get
units of energy

Electronic entropy                ...      0.00000000 Eh      0.00 kcal/mol
Vibrational entropy               ...      0.00003427 Eh      0.02 kcal/mol
Rotational entropy                ...      0.00643294 Eh      4.04 kcal/mol
Translational entropy             ...      0.01636425 Eh     10.27 kcal/mol
-----------------------------------------------------------------------
Final entropy term                ...      0.02283147 Eh     14.33 kcal/mol

In case the symmetry of your molecule has not been determined correctly
or in case you have a reason to use a different symmetry number we print 
out the resulting rotational entropy values for sn=1,12 :
 --------------------------------------------------------
|  sn= 1 | S(rot)=       0.00643294 Eh      4.04 kcal/mol|
|  sn= 2 | S(rot)=       0.00577849 Eh      3.63 kcal/mol|
|  sn= 3 | S(rot)=       0.00539565 Eh      3.39 kcal/mol|
|  sn= 4 | S(rot)=       0.00512403 Eh      3.22 kcal/mol|
|  sn= 5 | S(rot)=       0.00491334 Eh      3.08 kcal/mol|
|  sn= 6 | S(rot)=       0.00474120 Eh      2.98 kcal/mol|
|  sn= 7 | S(rot)=       0.00459565 Eh      2.88 kcal/mol|
|  sn= 8 | S(rot)=       0.00446957 Eh      2.80 kcal/mol|
|  sn= 9 | S(rot)=       0.00435837 Eh      2.73 kcal/mol|
|  sn=10 | S(rot)=       0.00425889 Eh      2.67 kcal/mol|
|  sn=11 | S(rot)=       0.00416890 Eh      2.62 kcal/mol|
|  sn=12 | S(rot)=       0.00408674 Eh      2.56 kcal/mol|
 --------------------------------------------------------


-------------------
GIBBS FREE ENERGY
-------------------

The Gibbs free energy is G = H - T*S

Total enthalpy                    ...    -56.16046260 Eh 
Total entropy correction          ...     -0.02283147 Eh    -14.33 kcal/mol
-----------------------------------------------------------------------
Final Gibbs free energy         ...    -56.18329407 Eh

For completeness - the Gibbs free energy minus the electronic energy
G-E(el)                           ...      0.01770983 Eh     11.11 kcal/mol


Total Time for Numerical Frequencies  :       102.814 sec

Timings for individual modules:

Sum of individual times         ...       11.190 sec (=   0.187 min)
GTO integral calculation        ...        1.600 sec (=   0.027 min)  14.3 %
SCF iterations                  ...        6.516 sec (=   0.109 min)  58.2 %
Solution of CP-SCF eqns.        ...        1.696 sec (=   0.028 min)  15.2 %
SCF Gradient evaluation         ...        1.243 sec (=   0.021 min)  11.1 %
Geometry relaxation             ...        0.136 sec (=   0.002 min)   1.2 %
                             ****ORCA TERMINATED NORMALLY****
TOTAL RUN TIME: 0 days 0 hours 1 minutes 52 seconds 336 msec
