
                                 *****************
                                 * O   R   C   A *
                                 *****************

                                            #,                                       
                                            ###                                      
                                            ####                                     
                                            #####                                    
                                            ######                                   
                                           ########,                                 
                                     ,,################,,,,,                         
                               ,,#################################,,                 
                          ,,##########################################,,             
                       ,#########################################, ''#####,          
                    ,#############################################,,   '####,        
                  ,##################################################,,,,####,       
                ,###########''''           ''''###############################       
              ,#####''   ,,,,##########,,,,          '''####'''          '####       
            ,##' ,,,,###########################,,,                        '##       
           ' ,,###''''                  '''############,,,                           
         ,,##''                                '''############,,,,        ,,,,,,###''
      ,#''                                            '''#######################'''  
     '                                                          ''''####''''         
             ,#######,   #######,   ,#######,      ##                                
            ,#'     '#,  ##    ##  ,#'     '#,    #''#        ######   ,####,        
            ##       ##  ##   ,#'  ##            #'  '#       #        #'  '#        
            ##       ##  #######   ##           ,######,      #####,   #    #        
            '#,     ,#'  ##    ##  '#,     ,#' ,#      #,         ##   #,  ,#        
             '#######'   ##     ##  '#######'  #'      '#     #####' # '####'        



                  #######################################################
                  #                        -***-                        #
                  #          Department of theory and spectroscopy      #
                  #    Directorship and core code : Frank Neese         #
                  #        Max Planck Institute fuer Kohlenforschung    #
                  #                Kaiser Wilhelm Platz 1               #
                  #                 D-45470 Muelheim/Ruhr               #
                  #                      Germany                        #
                  #                                                     #
                  #                  All rights reserved                #
                  #                        -***-                        #
                  #######################################################


                         Program Version 5.0.3 -  RELEASE  -


 With contributions from (in alphabetic order):
   Daniel Aravena         : Magnetic Suceptibility
   Michael Atanasov       : Ab Initio Ligand Field Theory (pilot matlab implementation)
   Alexander A. Auer      : GIAO ZORA, VPT2 properties, NMR spectrum
   Ute Becker             : Parallelization
   Giovanni Bistoni       : ED, misc. LED, open-shell LED, HFLD
   Martin Brehm           : Molecular dynamics
   Dmytro Bykov           : SCF Hessian
   Vijay G. Chilkuri      : MRCI spin determinant printing, contributions to CSF-ICE
   Dipayan Datta          : RHF DLPNO-CCSD density
   Achintya Kumar Dutta   : EOM-CC, STEOM-CC
   Dmitry Ganyushin       : Spin-Orbit,Spin-Spin,Magnetic field MRCI
   Miquel Garcia          : C-PCM and meta-GGA Hessian, CC/C-PCM, Gaussian charge scheme
   Yang Guo               : DLPNO-NEVPT2, F12-NEVPT2, CIM, IAO-localization
   Andreas Hansen         : Spin unrestricted coupled pair/coupled cluster methods
   Benjamin Helmich-Paris : MC-RPA, TRAH-SCF, COSX integrals
   Lee Huntington         : MR-EOM, pCC
   Robert Izsak           : Overlap fitted RIJCOSX, COSX-SCS-MP3, EOM
   Marcus Kettner         : VPT2
   Christian Kollmar      : KDIIS, OOCD, Brueckner-CCSD(T), CCSD density, CASPT2, CASPT2-K
   Simone Kossmann        : Meta GGA functionals, TD-DFT gradient, OOMP2, MP2 Hessian
   Martin Krupicka        : Initial AUTO-CI
   Lucas Lang             : DCDCAS
   Marvin Lechner         : AUTO-CI (C++ implementation), FIC-MRCC
   Dagmar Lenk            : GEPOL surface, SMD
   Dimitrios Liakos       : Extrapolation schemes; Compound Job, initial MDCI parallelization
   Dimitrios Manganas     : Further ROCIS development; embedding schemes
   Dimitrios Pantazis     : SARC Basis sets
   Anastasios Papadopoulos: AUTO-CI, single reference methods and gradients
   Taras Petrenko         : DFT Hessian,TD-DFT gradient, ASA, ECA, R-Raman, ABS, FL, XAS/XES, NRVS
   Peter Pinski           : DLPNO-MP2, DLPNO-MP2 Gradient
   Christoph Reimann      : Effective Core Potentials
   Marius Retegan         : Local ZFS, SOC
   Christoph Riplinger    : Optimizer, TS searches, QM/MM, DLPNO-CCSD(T), (RO)-DLPNO pert. Triples
   Tobias Risthaus        : Range-separated hybrids, TD-DFT gradient, RPA, STAB
   Michael Roemelt        : Original ROCIS implementation
   Masaaki Saitow         : Open-shell DLPNO-CCSD energy and density
   Barbara Sandhoefer     : DKH picture change effects
   Avijit Sen             : IP-ROCIS
   Kantharuban Sivalingam : CASSCF convergence, NEVPT2, FIC-MRCI
   Bernardo de Souza      : ESD, SOC TD-DFT
   Georgi Stoychev        : AutoAux, RI-MP2 NMR, DLPNO-MP2 response
   Willem Van den Heuvel  : Paramagnetic NMR
   Boris Wezisla          : Elementary symmetry handling
   Frank Wennmohs         : Technical directorship


 We gratefully acknowledge several colleagues who have allowed us to
 interface, adapt or use parts of their codes:
   Stefan Grimme, W. Hujo, H. Kruse, P. Pracht,  : VdW corrections, initial TS optimization,
                  C. Bannwarth, S. Ehlert          DFT functionals, gCP, sTDA/sTD-DF
   Ed Valeev, F. Pavosevic, A. Kumar             : LibInt (2-el integral package), F12 methods
   Garnet Chan, S. Sharma, J. Yang, R. Olivares  : DMRG
   Ulf Ekstrom                                   : XCFun DFT Library
   Mihaly Kallay                                 : mrcc  (arbitrary order and MRCC methods)
   Jiri Pittner, Ondrej Demel                    : Mk-CCSD
   Frank Weinhold                                : gennbo (NPA and NBO analysis)
   Christopher J. Cramer and Donald G. Truhlar   : smd solvation model
   Lars Goerigk                                  : TD-DFT with DH, B97 family of functionals
   V. Asgeirsson, H. Jonsson                     : NEB implementation
   FAccTs GmbH                                   : IRC, NEB, NEB-TS, DLPNO-Multilevel, CI-OPT
                                                   MM, QMMM, 2- and 3-layer-ONIOM, Crystal-QMMM,
                                                   LR-CPCM, SF, NACMEs, symmetry and pop. for TD-DFT,
                                                   nearIR, NL-DFT gradient (VV10), updates on ESD,
                                                   ML-optimized integration grids
   S Lehtola, MJT Oliveira, MAL Marques          : LibXC Library
   Liviu Ungur et al                             : ANISO software


 Your calculation uses the libint2 library for the computation of 2-el integrals
 For citations please refer to: http://libint.valeyev.net

 Your ORCA version has been built with support for libXC version: 5.1.0
 For citations please refer to: https://tddft.org/programs/libxc/

 This ORCA versions uses:
   CBLAS   interface :  Fast vector & matrix operations
   LAPACKE interface :  Fast linear algebra routines
   Shared memory     :  Shared parallel matrices


SCAN-COORDS
================================================================================

----- Orbital basis set information -----
Your calculation utilizes the basis: def2-SVP
   F. Weigend and R. Ahlrichs, Phys. Chem. Chem. Phys. 7, 3297 (2005).

----- AuxJ basis set information -----
Your calculation utilizes the auxiliary basis: def2/J
   F. Weigend, Phys. Chem. Chem. Phys. 8, 1057 (2006).

================================================================================
                                        WARNINGS
                       Please study these warnings very carefully!
================================================================================


WARNING: your system is open-shell and RHF/RKS was chosen
  ===> : WILL SWITCH to UHF/UKS


WARNING: The environment variable RSH_COMMAND is not set!
  ===> : All Displacements for the Numerical Hessian or Gradient calculation
         will be started on localhost

WARNING: Geometry Optimization
  ===> : Switching off AutoStart
         For restart on a previous wavefunction, please use MOREAD

INFO   : the flag for use of the SHARK integral package has been found!

================================================================================
                                       INPUT FILE
================================================================================
NAME = inputAdvance_COMPLETE.inp
|  1> ! PAL5 VWN
|  2> %method
|  3>         method DFT
|  4>         runtyp OPT
|  5> end
|  6> 
|  7> %cpcm
|  8>        epsilon 80.4
|  9>        refrac 1.33
| 10>        fepstype cosmo
| 11> end
| 12> %scf                  
| 13>        MaxIter 500
| 14> end
| 15> %geom                  
| 16>        MaxIter 500
| 17>        Convergence loose                                                  
| 18> end
| 19> 
| 20> %basis
| 21>         basis "def2-SVP"
| 22> end
| 23> ! NumFreq
| 24> %elprop
| 25>         Polar 1
| 26> end
| 27> %output
| 28>         XYZFile true
| 29> end
| 30> %coords
| 31>         CTyp xyz
| 32>         Charge 0
| 33>         Mult 2
| 34>         Units Angs
| 35>         coords
| 36> 	Ti    -1.671960    2.457770   -0.000000
| 37> 	O     -3.066310    1.598560   -0.000001
| 38> 	O     -0.110402    3.419370    0.000000
| 39> 	H      0.603334    2.732930    0.000000
| 40>         end
| 41> end
| 42> 
| 43>                          ****END OF INPUT****
================================================================================

                       *****************************
                       * Geometry Optimization Run *
                       *****************************

Geometry optimization settings:
Update method            Update   .... BFGS
Choice of coordinates    CoordSys .... Z-matrix Internals
Initial Hessian          InHess   .... Almoef's Model

Convergence Tolerances:
Energy Change            TolE     ....  3.0000e-05 Eh
Max. Gradient            TolMAXG  ....  2.0000e-03 Eh/bohr
RMS Gradient             TolRMSG  ....  5.0000e-04 Eh/bohr
Max. Displacement        TolMAXD  ....  1.0000e-02 bohr
RMS Displacement         TolRMSD  ....  7.0000e-03 bohr
Strict Convergence                ....  False
------------------------------------------------------------------------------
                        ORCA OPTIMIZATION COORDINATE SETUP
------------------------------------------------------------------------------

The optimization will be done in new redundant internal coordinates
Making redundant internal coordinates   ...  (new redundants) done
Evaluating the initial hessian          ...  (Almloef) done
Evaluating the coordinates              ...  done
Calculating the B-matrix                .... done
Calculating the G-matrix                .... done
Diagonalizing the G-matrix              .... done
The first mode is                       ....    0
The number of degrees of freedom        ....    6

    -----------------------------------------------------------------
                    Redundant Internal Coordinates


    -----------------------------------------------------------------
         Definition                    Initial Value    Approx d2E/dq
    -----------------------------------------------------------------
      1. B(O   1,Ti  0)                  1.6378         2.278345   
      2. B(O   2,Ti  0)                  1.8339         1.108686   
      3. B(H   3,O   2)                  0.9903         0.465249   
      4. L(O   1,Ti  0,O   2,H   3, 2) 179.9999         0.785620   
      5. L(O   1,Ti  0,O   2,H   3, 1) 179.9828         0.785620   
      6. A(Ti  0,O   2,H   3)          104.4923         0.450987   
    -----------------------------------------------------------------

Number of atoms                         .... 4
Number of degrees of freedom            .... 6

         *************************************************************
         *                GEOMETRY OPTIMIZATION CYCLE   1            *
         *************************************************************
---------------------------------
CARTESIAN COORDINATES (ANGSTROEM)
---------------------------------
  Ti    -1.671960    2.457770   -0.000000
  O     -3.066310    1.598560   -0.000001
  O     -0.110402    3.419370    0.000000
  H      0.603334    2.732930    0.000000

----------------------------
CARTESIAN COORDINATES (A.U.)
----------------------------
  NO LB      ZA    FRAG     MASS         X           Y           Z
   0 Ti   22.0000    0    47.900   -3.159547    4.644512   -0.000000
   1 O     8.0000    0    15.999   -5.794486    3.020841   -0.000002
   2 O     8.0000    0    15.999   -0.208630    6.461673    0.000000
   3 H     1.0000    0     1.008    1.140136    5.164489    0.000000

--------------------------------
INTERNAL COORDINATES (ANGSTROEM)
--------------------------------
 Ti     0   0   0     0.000000000000     0.00000000     0.00000000
 O      1   0   0     1.637819815059     0.00000000     0.00000000
 O      1   2   0     1.833886023548   179.98284525     0.00000000
 H      3   1   2     0.990262061929   104.49225786   359.88315907

---------------------------
INTERNAL COORDINATES (A.U.)
---------------------------
 Ti     0   0   0     0.000000000000     0.00000000     0.00000000
 O      1   0   0     3.095030907172     0.00000000     0.00000000
 O      1   2   0     3.465542345331   179.98284525     0.00000000
 H      3   1   2     1.871324097858   104.49225786   359.88315907

---------------------
BASIS SET INFORMATION
---------------------
There are 3 groups of distinct atoms

 Group   1 Type Ti  : 14s9p5d1f contracted to 5s3p2d1f pattern {63311/531/41/1}
 Group   2 Type O   : 7s4p1d contracted to 3s2p1d pattern {511/31/1}
 Group   3 Type H   : 4s1p contracted to 2s1p pattern {31/1}

Atom   0Ti   basis set group =>   1
Atom   1O    basis set group =>   2
Atom   2O    basis set group =>   2
Atom   3H    basis set group =>   3
---------------------------------
AUXILIARY/J BASIS SET INFORMATION
---------------------------------
There are 3 groups of distinct atoms

 Group   1 Type Ti  : 19s5p5d3f3g contracted to 8s5p5d2f3g pattern {121111111/11111/11111/21/111}
 Group   2 Type O   : 12s5p4d2f1g contracted to 6s4p3d1f1g pattern {711111/2111/211/2/1}
 Group   3 Type H   : 5s2p1d contracted to 3s1p1d pattern {311/2/1}

Atom   0Ti   basis set group =>   1
Atom   1O    basis set group =>   2
Atom   2O    basis set group =>   2
Atom   3H    basis set group =>   3


           ************************************************************
           *        Program running with 5 parallel MPI-processes     *
           *              working on a common directory               *
           ************************************************************
------------------------------------------------------------------------------
                           ORCA GTO INTEGRAL CALCULATION
                           -- RI-GTO INTEGRALS CHOSEN --
------------------------------------------------------------------------------
------------------------------------------------------------------------------
                   ___                                                        
                  /   \      - P O W E R E D   B Y -                         
                 /     \                                                     
                 |  |  |   _    _      __       _____    __    __             
                 |  |  |  | |  | |    /  \     |  _  \  |  |  /  |          
                  \  \/   | |  | |   /    \    | | | |  |  | /  /          
                 / \  \   | |__| |  /  /\  \   | |_| |  |  |/  /          
                |  |  |   |  __  | /  /__\  \  |    /   |      \           
                |  |  |   | |  | | |   __   |  |    \   |  |\   \          
                \     /   | |  | | |  |  |  |  | |\  \  |  | \   \       
                 \___/    |_|  |_| |__|  |__|  |_| \__\ |__|  \__/        
                                                                              
                      - O R C A' S   B I G   F R I E N D -                    
                                      &                                       
                       - I N T E G R A L  F E E D E R -                       
                                                                              
 v1 FN, 2020, v2 2021                                                         
------------------------------------------------------------------------------


Reading SHARK input file inputAdvance_COMPLETE.SHARKINP.tmp ... ok
----------------------
SHARK INTEGRAL PACKAGE
----------------------

Number of atoms                             ...      4
Number of basis functions                   ...     64
Number of shells                            ...     26
Maximum angular momentum                    ...      3
Integral batch strategy                     ... SHARK/LIBINT Hybrid
RI-J (if used) integral strategy            ... SPLIT-RIJ (Revised 2003 algorithm where possible)
Printlevel                                  ...      1
Contraction scheme used                     ... SEGMENTED contraction
Coulomb Range Separation                    ... NOT USED
Exchange Range Separation                   ... NOT USED
Finite Nucleus Model                        ... NOT USED
Auxiliary Coulomb fitting basis             ... AVAILABLE
   # of basis functions in Aux-J            ...    198
   # of shells in Aux-J                     ...     58
   Maximum angular momentum in Aux-J        ...      4
Auxiliary J/K fitting basis                 ... NOT available
Auxiliary Correlation fitting basis         ... NOT available
Auxiliary 'external' fitting basis          ... NOT available
Integral threshold                          ...     2.500000e-11
Primitive cut-off                           ...     2.500000e-12
Primitive pair pre-selection threshold      ...     2.500000e-12

Calculating pre-screening integrals         ... done (  0.1 sec) Dimension = 26
Organizing shell pair data                  ... done (  0.1 sec)
Shell pair information
Total number of shell pairs                 ...       351
Shell pairs after pre-screening             ...       338
Total number of primitive shell pairs       ...      1780
Primitive shell pairs kept                  ...      1404
          la=0 lb=0:     85 shell pairs
          la=1 lb=0:     99 shell pairs
          la=1 lb=1:     36 shell pairs
          la=2 lb=0:     50 shell pairs
          la=2 lb=1:     32 shell pairs
          la=2 lb=2:     10 shell pairs
          la=3 lb=0:     13 shell pairs
          la=3 lb=1:      8 shell pairs
          la=3 lb=2:      4 shell pairs
          la=3 lb=3:      1 shell pairs

Calculating one electron integrals          ... done (  0.0 sec)
Calculating RI/J V-Matrix + Cholesky decomp.... done (  0.2 sec)
Calculating Nuclear repulsion               ... done (  0.0 sec) ENN=    127.863159354412 Eh

SHARK setup successfully completed in   0.7 seconds

Maximum memory used throughout the entire GTOINT-calculation: 14.1 MB


           ************************************************************
           *        Program running with 5 parallel MPI-processes     *
           *              working on a common directory               *
           ************************************************************
-------------------------------------------------------------------------------
                                 ORCA SCF
-------------------------------------------------------------------------------

------------
SCF SETTINGS
------------
Hamiltonian:
 Density Functional     Method          .... DFT(GTOs)
 Exchange Functional    Exchange        .... Slater
   X-Alpha parameter    XAlpha          ....  0.666667
 Correlation Functional Correlation     .... VWN-5
 Gradients option       PostSCFGGA      .... off
   Density functional embedding theory  .... OFF
 RI-approximation to the Coulomb term is turned on
   Number of AuxJ basis functions       .... 198


General Settings:
 Integral files         IntName         .... inputAdvance_COMPLETE
 Hartree-Fock type      HFTyp           .... UHF
 Total Charge           Charge          ....    0
 Multiplicity           Mult            ....    2
 Number of Electrons    NEL             ....   39
 Basis Dimension        Dim             ....   64
 Nuclear Repulsion      ENuc            ....    127.8631593544 Eh

Convergence Acceleration:
 DIIS                   CNVDIIS         .... on
   Start iteration      DIISMaxIt       ....    12
   Startup error        DIISStart       ....  0.200000
   # of expansion vecs  DIISMaxEq       ....     5
   Bias factor          DIISBfac        ....   1.050
   Max. coefficient     DIISMaxC        ....  10.000
 Trust-Rad. Augm. Hess. CNVTRAH         .... auto
   Auto Start mean grad. ratio tolernc. ....  1.125000
   Auto Start start iteration           ....    20
   Auto Start num. interpolation iter.  ....    10
   Max. Number of Micro iterations      ....    16
   Max. Number of Macro iterations      .... Maxiter - #DIIS iter
   Number of Davidson start vectors     ....     2
   Converg. threshold I  (grad. norm)   ....   1.000e-05
   Converg. threshold II (energy diff.) ....   1.000e-08
   Grad. Scal. Fac. for Micro threshold ....   0.100
   Minimum threshold for Micro iter.    ....   0.010
   NR start threshold (gradient norm)   ....   0.001
   Initial trust radius                 ....   0.400
   Minimum AH scaling param. (alpha)    ....   1.000
   Maximum AH scaling param. (alpha)    .... 1000.000
   Orbital update algorithm             .... Taylor
   White noise on init. David. guess    .... on
   Maximum white noise                  ....   0.010
   Quad. conv. algorithm                .... NR
 SOSCF                  CNVSOSCF        .... off
 Level Shifting         CNVShift        .... on
   Level shift para.    LevelShift      ....    0.2500
   Turn off err/grad.   ShiftErr        ....    0.0010
 Zerner damping         CNVZerner       .... off
 Static damping         CNVDamp         .... on
   Fraction old density DampFac         ....    0.7000
   Max. Damping (<1)    DampMax         ....    0.9800
   Min. Damping (>=0)   DampMin         ....    0.0000
   Turn off err/grad.   DampErr         ....    0.1000
 Fernandez-Rico         CNVRico         .... off

SCF Procedure:
 Maximum # iterations   MaxIter         ....   500
 SCF integral mode      SCFMode         .... Direct
   Integral package                     .... SHARK and LIBINT hybrid scheme
 Reset frequency        DirectResetFreq ....    20
 Integral Threshold     Thresh          ....  2.500e-11 Eh
 Primitive CutOff       TCut            ....  2.500e-12 Eh

Convergence Tolerance:
 Convergence Check Mode ConvCheckMode   .... Total+1el-Energy
 Convergence forced     ConvForced      .... 0
 Energy Change          TolE            ....  1.000e-08 Eh
 1-El. energy change                    ....  1.000e-05 Eh
 DIIS Error             TolErr          ....  5.000e-07


Diagonalization of the overlap matrix:
Smallest eigenvalue                        ... 1.346e-02
Time for diagonalization                   ...    0.019 sec
Threshold for overlap eigenvalues          ... 1.000e-08
Number of eigenvalues below threshold      ... 0
Time for construction of square roots      ...    0.111 sec
Total time needed                          ...    0.177 sec

Time for model grid setup =    0.275 sec

------------------------------
INITIAL GUESS: MODEL POTENTIAL
------------------------------
Loading Hartree-Fock densities                     ... done
Calculating cut-offs                               ... done
Initializing the effective Hamiltonian             ... done
Setting up the integral package (SHARK)            ... done
Starting the Coulomb interaction                   ... done (   0.3 sec)
Reading the grid                                   ... done
Mapping shells                                     ... done
Starting the XC term evaluation                    ... done (   0.0 sec)
  promolecular density results
     # of electrons  =     39.000657124
     EX              =    -53.187288159
     EC              =     -2.953321740
     EX+EC           =    -56.140609899
Transforming the Hamiltonian                       ... done (   0.1 sec)
Diagonalizing the Hamiltonian                      ... done (   0.1 sec)
Back transforming the eigenvectors                 ... done (   0.0 sec)
Now organizing SCF variables                       ... done
                      ------------------
                      INITIAL GUESS DONE (   1.0 sec)
                      ------------------
-------------------
DFT GRID GENERATION
-------------------

General Integration Accuracy     IntAcc      ... 4.388
Radial Grid Type                 RadialGrid  ... OptM3 with GC (2021)
Angular Grid (max. ang.)         AngularGrid ... 4 (Lebedev-302)
Angular grid pruning method      GridPruning ... 4 (adaptive)
Weight generation scheme         WeightScheme... Becke
Basis function cutoff            BFCut       ... 1.0000e-11
Integration weight cutoff        WCut        ... 1.0000e-14
Angular grids for H and He will be reduced by one unit
Partially contracted basis set               ... off
Rotationally invariant grid construction     ... off

Total number of grid points                  ...    26834
Total number of batches                      ...      421
Average number of points per batch           ...       63
Average number of grid points per atom       ...     6709
Time for grid setup =    0.764 sec


--------------------
CPCM SOLVATION MODEL
--------------------
CPCM parameters:
  Epsilon                                         ...      80.4000
  Refrac                                          ...       1.3300
  Rsolv                                           ...       1.3000
  Surface type                                    ... GAUSSIAN VDW
  Epsilon function type                           ...        COSMO
Radii:
 Radius for Ti used is    4.5353 Bohr (=   2.4000 Ang.)
 Radius for O  used is    3.4469 Bohr (=   1.8240 Ang.)
 Radius for H  used is    2.4944 Bohr (=   1.3200 Ang.)
Calculating surface                               ...        done! (  0.0s)
GEPOL surface points                              ...          301
GEPOL Volume                                      ...     528.3016
GEPOL Surface-area                                ...     336.0793
Calculating surface distance matrix               ...        done! (  0.0s)
Performing Cholesky decomposition & store         ...        done! (  0.0s)
Overall time for CPCM initialization              ...                 0.0s
--------------
SCF ITERATIONS
--------------
ITER       Energy         Delta-E        Max-DP      RMS-DP      [F,P]     Damp
               ***  Starting incremental Fock matrix formation  ***
  0   -996.7253470217   0.000000000000 0.21911001  0.00878070  0.2180176 0.7000
  1   -996.4366636750   0.288683346703 0.08110444  0.00360065  0.1745365 0.7000
                               ***Turning on DIIS***
  2   -996.8428268607  -0.406163185731 0.18263319  0.00795381  0.0474477 0.0000
  3   -996.7154505764   0.127376284382 0.01249393  0.00071955  0.1934436 0.7000
  4   -996.7914759093  -0.076025332982 0.01284941  0.00077560  0.1788370 0.7000
  5   -996.8676528951  -0.076176985729 0.01795772  0.00074752  0.1619282 0.7000
  6   -996.9312844350  -0.063631539974 0.02075868  0.00069291  0.1479709 0.7000
  7   -996.9785683641  -0.047283929045 0.04115175  0.00181549  0.1377518 0.7000
  8   -997.0866882113  -0.108119847237 0.11460637  0.00428192  0.0998901 0.0000
  9   -997.1999913614  -0.113303150110 0.03544272  0.00109561  0.0184274 0.0000
 10   -997.2004047382  -0.000413376760 0.02239468  0.00064598  0.0225366 0.0000
 11   -997.2038396097  -0.003434871471 0.02736612  0.00056783  0.0062000 0.0000
 12   -997.2052384587  -0.001398849064 0.03107277  0.00063872  0.0072795 0.0000
 13   -997.2068067677  -0.001568308994 0.02794626  0.00072716  0.0083360 0.0000
 14   -997.2081756480  -0.001368880263 0.03231669  0.00079755  0.0095869 0.0000
 15   -997.2109576384  -0.002781990429 0.03704487  0.00085350  0.0086713 0.0000
 16   -997.2130797492  -0.002122110768 0.04611625  0.00098783  0.0076230 0.0000
 17   -997.2142890748  -0.001209325581 0.04843994  0.00101038  0.0163925 0.0000
 18   -997.2152360743  -0.000946999544 0.04269289  0.00090215  0.0218884 0.0000
 19   -997.2174579132  -0.002221838938 0.04251197  0.00085245  0.0210170 0.0000
               *** Restarting incremental Fock matrix formation ***
                                   *** Resetting DIIS ***

 WARNING: the maximum gradient error descreased on average only by a factor   0.9
          during the last 20 iterations

                      *** Initiating the TRAH-SCF procedure ***


TRAH GRID
---------

General Integration Accuracy     IntAcc      ... 3.467
Radial Grid Type                 RadialGrid  ... OptM3 with GC (2021)
Angular Grid (max. ang.)         AngularGrid ... 1 (Lebedev-50)
Angular grid pruning method      GridPruning ... 4 (adaptive)
Weight generation scheme         WeightScheme... Becke
Basis function cutoff            BFCut       ... 1.0000e-11
Integration weight cutoff        WCut        ... 1.0000e-14
Angular grids for H and He will be reduced by one unit
Partially contracted basis set               ... off
Rotationally invariant grid construction     ... off

Total number of grid points                  ...     6677
Total number of batches                      ...      107
Average number of points per batch           ...       62
Average number of grid points per atom       ...     1669

 --------------------------------------------------------------------------------------------
   Iter.        energy            ||Error||_2        Shift      TRadius  Mac/Mic        Rej.
 --------------------------------------------------------------------------------------------
    0       -997.218962549242     8.013126e-02                     0.400 (TRAH MAcro)   No
WARNING : small    HOMO - LUMO gap : (op = alpha) 0.007269
    0     dE    -2.762563e-03     1.134100e-01    -2.7590e-03      0.036 (TRAH MIcro)
    0     dE    -6.654100e-03     9.210634e-02    -6.0190e-03      0.325 (TRAH MIcro)
    0     dE    -8.736267e-03     1.662983e-02    -7.6807e-03      0.371 (TRAH MIcro)
    0     dE    -8.825429e-03     8.205419e-03    -7.7452e-03      0.373 (TRAH MIcro)
    0     dE    -8.864225e-03     1.028312e-03    -7.7732e-03      0.375 (TRAH MIcro)
    1       -997.227316097900     1.224352e-02                     0.480 (TRAH MAcro)   No
WARNING : small    HOMO - LUMO gap : (op = alpha) 0.014073
    1     dE    -5.935791e-05     1.245599e-02    -5.9357e-05      0.005 (TRAH MIcro)
    1     dE    -1.878138e-04     9.902173e-03    -1.8732e-04      0.051 (TRAH MIcro)
    1     dE    -2.721207e-04     7.542887e-03    -2.7028e-04      0.083 (TRAH MIcro)
    1     dE    -2.987385e-04     2.641822e-03    -2.9626e-04      0.091 (TRAH MIcro)
    1     dE    -3.013745e-04     1.363865e-03    -2.9881e-04      0.093 (TRAH MIcro)
    1     dE    -3.024172e-04     3.552855e-04    -2.9979e-04      0.094 (TRAH MIcro)
    2       -997.227642630599     1.418905e-03                     0.576 (TRAH MAcro)   No
WARNING : small    HOMO - LUMO gap : (op = alpha) 0.013313
    2     dE    -8.590127e-07     6.490113e-03    -8.5901e-07      0.001 (TRAH MIcro)
    2     dE    -8.152730e-06     5.128203e-03    -8.1510e-06      0.015 (TRAH MIcro)
    2     dE    -1.155405e-05     2.542887e-03    -1.1548e-05      0.023 (TRAH MIcro)
    2     dE    -1.338621e-05     8.220737e-04    -1.3376e-05      0.028 (TRAH MIcro)
    2     dE    -1.360069e-05     3.774101e-04    -1.3589e-05      0.029 (TRAH MIcro)
    2     dE    -1.365397e-05     6.962196e-05    -1.3643e-05      0.029 (TRAH MIcro)
    3       -997.227657121117     2.016640e-04                           (NR   MAcro)
WARNING : small    HOMO - LUMO gap : (op = alpha) 0.012430
    3     dE    -7.044556e-08     1.830892e-04                           (NR   MIcro)
    3     dE    -1.181820e-07     1.904262e-04                           (NR   MIcro)
    3     dE    -1.449843e-07     1.080712e-04                           (NR   MIcro)
    3     dE    -1.493519e-07     4.211575e-05                           (NR   MIcro)
    3     dE    -1.500366e-07     6.646389e-06                           (NR   MIcro)
    3     dE    -1.500616e-07     1.716864e-06                           (NR   MIcro)
    3     dE    -1.500635e-07     6.029880e-07                           (NR   MIcro)
    4       -997.227657272673     2.826897e-06                           (NR   MAcro)
WARNING : small    HOMO - LUMO gap : (op = alpha) 0.012312
    4     dE    -1.427621e-11     2.966806e-06                           (NR   MIcro)
    4     dE    -2.570884e-11     2.894492e-06                           (NR   MIcro)
    4     dE    -3.137107e-11     1.459647e-06                           (NR   MIcro)
    4     dE    -3.218198e-11     6.215331e-07                           (NR   MIcro)
    5       -997.227657272705     6.168138e-07                           (NR   MAcro)
WARNING : small    HOMO - LUMO gap : (op = alpha) 0.012310

               *****************************************************
               *                     SUCCESS                       *
               *           SCF CONVERGED AFTER  54 CYCLES          *
               *****************************************************


----------------
TOTAL SCF ENERGY
----------------

Total Energy       :         -997.22765727 Eh          -27135.94412 eV

Components:
Nuclear Repulsion  :          127.86315935 Eh            3479.33345 eV
Electronic Energy  :        -1125.09081663 Eh          -30615.27757 eV
One Electron Energy:        -1628.37521337 Eh          -44310.34225 eV
Two Electron Energy:          503.28439674 Eh           13695.06468 eV
CPCM Dielectric    :           -0.02317989 Eh              -0.63076 eV

Virial components:
Potential Energy   :        -1995.13418988 Eh          -54290.36138 eV
Kinetic Energy     :          997.90653261 Eh           27154.41726 eV
Virial Ratio       :            1.99931970


DFT components:
N(Alpha)           :       19.999847728047 electrons
N(Beta)            :       18.999867249447 electrons
N(Total)           :       38.999714977494 electrons
E(X)               :      -53.655248396969 Eh       
E(C)               :       -2.984409028073 Eh       
E(XC)              :      -56.639657425042 Eh       
DFET-embed. en.    :        0.000000000000 Eh       
CPCM Solvation Model Properties:
Surface-charge          :           -0.00874828
Charge-correction       :            0.00001559 Eh               0.00042 eV
Free-energy (cav+disp)  :  This term is not implemented in the current solvation scheme

---------------
SCF CONVERGENCE
---------------

  Last Energy change         ...   -3.2401e-11  Tolerance :   1.0000e-08
  Last Orbital Gradient      ...    6.1681e-07  Tolerance :   1.0000e-05
  Last Orbital Rotation      ...    4.5380e-05

             **** THE GBW FILE WAS UPDATED (inputAdvance_COMPLETE.gbw) ****
             **** DENSITY inputAdvance_COMPLETE.scfp WAS UPDATED ****
             **** ENERGY FILE WAS UPDATED (inputAdvance_COMPLETE.en.tmp) ****
----------------------
UHF SPIN CONTAMINATION
----------------------

Warning: in a DFT calculation there is little theoretical justification to 
         calculate <S**2> as in Hartree-Fock theory. We will do it anyways
         but you should keep in mind that the values have only limited relevance

Expectation value of <S**2>     :     0.755561
Ideal value S*(S+1) for S=0.5   :     0.750000
Deviation                       :     0.005561

             **** THE GBW FILE WAS UPDATED (inputAdvance_COMPLETE.gbw) ****
             **** DENSITY inputAdvance_COMPLETE.scfp WAS UPDATED ****
----------------
ORBITAL ENERGIES
----------------
                 SPIN UP ORBITALS
  NO   OCC          E(Eh)            E(eV) 
   0   1.0000    -177.125062     -4819.8180 
   1   1.0000     -19.354041      -526.6502 
   2   1.0000     -18.560627      -505.0603 
   3   1.0000     -18.536556      -504.4053 
   4   1.0000     -16.187084      -440.4729 
   5   1.0000     -16.186920      -440.4685 
   6   1.0000     -16.186453      -440.4558 
   7   1.0000      -2.182370       -59.3853 
   8   1.0000      -1.363795       -37.1108 
   9   1.0000      -1.354317       -36.8528 
  10   1.0000      -1.350826       -36.7579 
  11   1.0000      -0.818697       -22.2779 
  12   1.0000      -0.712037       -19.3755 
  13   1.0000      -0.384146       -10.4531 
  14   1.0000      -0.285972        -7.7817 
  15   1.0000      -0.269623        -7.3368 
  16   1.0000      -0.248141        -6.7522 
  17   1.0000      -0.233442        -6.3523 
  18   1.0000      -0.200384        -5.4527 
  19   1.0000      -0.116596        -3.1728 
  20   0.0000      -0.104286        -2.8378 
  21   0.0000      -0.100652        -2.7389 
  22   0.0000      -0.033343        -0.9073 
  23   0.0000      -0.022102        -0.6014 
  24   0.0000       0.026556         0.7226 
  25   0.0000       0.057480         1.5641 
  26   0.0000       0.074048         2.0150 
  27   0.0000       0.091283         2.4839 
  28   0.0000       0.216128         5.8811 
  29   0.0000       0.216812         5.8997 
  30   0.0000       0.512708        13.9515 
  31   0.0000       0.530910        14.4468 
  32   0.0000       0.569225        15.4894 
  33   0.0000       0.622027        16.9262 
  34   0.0000       0.634888        17.2762 
  35   0.0000       0.688770        18.7424 
  36   0.0000       0.892662        24.2906 
  37   0.0000       0.954479        25.9727 
  38   0.0000       0.982812        26.7437 
  39   0.0000       1.010806        27.5054 
  40   0.0000       1.048631        28.5347 
  41   0.0000       1.084339        29.5064 
  42   0.0000       1.129231        30.7279 
  43   0.0000       1.259205        34.2647 
  44   0.0000       1.344727        36.5919 
  45   0.0000       1.354325        36.8531 
  46   0.0000       1.442404        39.2498 
  47   0.0000       1.445787        39.3419 
  48   0.0000       1.446119        39.3509 
  49   0.0000       1.458512        39.6881 
  50   0.0000       1.515893        41.2495 
  51   0.0000       1.677944        45.6592 
  52   0.0000       1.893447        51.5233 
  53   0.0000       2.126291        57.8593 
  54   0.0000       2.627987        71.5112 
  55   0.0000       2.627996        71.5114 
  56   0.0000       2.669502        72.6408 
  57   0.0000       2.719224        73.9938 
  58   0.0000       2.737064        74.4793 
  59   0.0000       2.870690        78.1154 
  60   0.0000       2.878260        78.3214 
  61   0.0000       2.968687        80.7821 
  62   0.0000       3.044648        82.8491 
  63   0.0000       3.618532        98.4653 

                 SPIN DOWN ORBITALS
  NO   OCC          E(Eh)            E(eV) 
   0   1.0000    -177.124889     -4819.8133 
   1   1.0000     -19.344114      -526.3801 
   2   1.0000     -18.561208      -505.0762 
   3   1.0000     -18.538828      -504.4672 
   4   1.0000     -16.182280      -440.3422 
   5   1.0000     -16.178067      -440.2276 
   6   1.0000     -16.176660      -440.1893 
   7   1.0000      -2.152780       -58.5801 
   8   1.0000      -1.349433       -36.7199 
   9   1.0000      -1.319794       -35.9134 
  10   1.0000      -1.312071       -35.7033 
  11   1.0000      -0.818928       -22.2842 
  12   1.0000      -0.714396       -19.4397 
  13   1.0000      -0.382993       -10.4218 
  14   1.0000      -0.283477        -7.7138 
  15   1.0000      -0.267389        -7.2760 
  16   1.0000      -0.247121        -6.7245 
  17   1.0000      -0.234640        -6.3849 
  18   1.0000      -0.200718        -5.4618 
  19   0.0000      -0.088292        -2.4025 
  20   0.0000      -0.079196        -2.1550 
  21   0.0000      -0.061455        -1.6723 
  22   0.0000      -0.015670        -0.4264 
  23   0.0000      -0.006705        -0.1825 
  24   0.0000       0.032561         0.8860 
  25   0.0000       0.071430         1.9437 
  26   0.0000       0.083845         2.2815 
  27   0.0000       0.100160         2.7255 
  28   0.0000       0.222197         6.0463 
  29   0.0000       0.228444         6.2163 
  30   0.0000       0.543739        14.7959 
  31   0.0000       0.547490        14.8979 
  32   0.0000       0.580926        15.8078 
  33   0.0000       0.632181        17.2025 
  34   0.0000       0.645385        17.5618 
  35   0.0000       0.699687        19.0395 
  36   0.0000       0.894852        24.3502 
  37   0.0000       0.954445        25.9718 
  38   0.0000       0.982770        26.7425 
  39   0.0000       1.009568        27.4717 
  40   0.0000       1.050156        28.5762 
  41   0.0000       1.089080        29.6354 
  42   0.0000       1.133011        30.8308 
  43   0.0000       1.263188        34.3731 
  44   0.0000       1.357373        36.9360 
  45   0.0000       1.358872        36.9768 
  46   0.0000       1.458543        39.6890 
  47   0.0000       1.481668        40.3182 
  48   0.0000       1.484451        40.3940 
  49   0.0000       1.492459        40.6119 
  50   0.0000       1.524562        41.4854 
  51   0.0000       1.688462        45.9454 
  52   0.0000       1.906248        51.8716 
  53   0.0000       2.127239        57.8851 
  54   0.0000       2.623800        71.3972 
  55   0.0000       2.624464        71.4153 
  56   0.0000       2.667026        72.5735 
  57   0.0000       2.718388        73.9711 
  58   0.0000       2.737427        74.4892 
  59   0.0000       2.870375        78.1069 
  60   0.0000       2.877356        78.2968 
  61   0.0000       2.969103        80.7934 
  62   0.0000       3.046782        82.9072 
  63   0.0000       3.618324        98.4596 

                    ********************************
                    * MULLIKEN POPULATION ANALYSIS *
                    ********************************

--------------------------------------------
MULLIKEN ATOMIC CHARGES AND SPIN POPULATIONS
--------------------------------------------
   0 Ti:    0.912938    1.108434
   1 O :   -0.569677   -0.090139
   2 O :   -0.564980   -0.021888
   3 H :    0.221719    0.003593
Sum of atomic charges         :   -0.0000000
Sum of atomic spin populations:    1.0000000

-----------------------------------------------------
MULLIKEN REDUCED ORBITAL CHARGES AND SPIN POPULATIONS
-----------------------------------------------------
CHARGE
  0 Tis       :     6.148902  s :     6.148902
      pz      :     4.161681  p :    12.389364
      px      :     4.110779
      py      :     4.116904
      dz2     :     0.734250  d :     2.504124
      dxz     :     0.397388
      dyz     :     0.144408
      dx2y2   :     0.540636
      dxy     :     0.687442
      f0      :     0.004821  f :     0.044672
      f+1     :     0.005726
      f-1     :     0.002529
      f+2     :     0.001762
      f-2     :     0.006392
      f+3     :     0.011159
      f-3     :     0.012283
  1 O s       :     3.895072  s :     3.895072
      pz      :     1.539334  p :     4.667240
      px      :     1.576623
      py      :     1.551282
      dz2     :     0.000886  d :     0.007365
      dxz     :     0.001437
      dyz     :     0.000544
      dx2y2   :     0.002064
      dxy     :     0.002435
  2 O s       :     3.783695  s :     3.783695
      pz      :     1.724690  p :     4.773953
      px      :     1.482164
      py      :     1.567099
      dz2     :     0.001296  d :     0.007332
      dxz     :     0.000133
      dyz     :     0.000998
      dx2y2   :     0.001322
      dxy     :     0.003584
  3 H s       :     0.714139  s :     0.714139
      pz      :     0.016412  p :     0.064142
      px      :     0.023256
      py      :     0.024474

SPIN
  0 Tis       :     0.052288  s :     0.052288
      pz      :     0.006290  p :     0.015706
      px      :     0.003904
      py      :     0.005512
      dz2     :     0.598100  d :     1.040575
      dxz     :     0.024363
      dyz     :     0.008901
      dx2y2   :     0.108691
      dxy     :     0.300519
      f0      :     0.000021  f :    -0.000134
      f+1     :     0.000037
      f-1     :     0.000023
      f+2     :    -0.000000
      f-2     :    -0.000005
      f+3     :    -0.000093
      f-3     :    -0.000117
  1 O s       :    -0.000470  s :    -0.000470
      pz      :    -0.027433  p :    -0.090050
      px      :    -0.030104
      py      :    -0.032512
      dz2     :     0.000087  d :     0.000380
      dxz     :     0.000044
      dyz     :     0.000017
      dx2y2   :     0.000092
      dxy     :     0.000141
  2 O s       :    -0.001823  s :    -0.001823
      pz      :    -0.012145  p :    -0.020205
      px      :    -0.000942
      py      :    -0.007118
      dz2     :     0.000031  d :     0.000140
      dxz     :     0.000009
      dyz     :     0.000010
      dx2y2   :     0.000037
      dxy     :     0.000053
  3 H s       :     0.003455  s :     0.003455
      pz      :    -0.000072  p :     0.000138
      px      :    -0.000068
      py      :     0.000277


                     *******************************
                     * LOEWDIN POPULATION ANALYSIS *
                     *******************************

-------------------------------------------
LOEWDIN ATOMIC CHARGES AND SPIN POPULATIONS
-------------------------------------------
   0 Ti:    0.490746    1.094433
   1 O :   -0.295523   -0.081930
   2 O :   -0.298450   -0.016351
   3 H :    0.103227    0.003848

----------------------------------------------------
LOEWDIN REDUCED ORBITAL CHARGES AND SPIN POPULATIONS
----------------------------------------------------
CHARGE
  0 Tis       :     6.148426  s :     6.148426
      pz      :     4.166463  p :    12.484648
      px      :     4.169033
      py      :     4.149151
      dz2     :     0.770211  d :     2.755010
      dxz     :     0.429611
      dyz     :     0.157023
      dx2y2   :     0.591041
      dxy     :     0.807124
      f0      :     0.010557  f :     0.121170
      f+1     :     0.018980
      f-1     :     0.008120
      f+2     :     0.003688
      f-2     :     0.014023
      f+3     :     0.022439
      f-3     :     0.043362
  1 O s       :     3.639200  s :     3.639200
      pz      :     1.502097  p :     4.640834
      px      :     1.601814
      py      :     1.536922
      dz2     :     0.002781  d :     0.015490
      dxz     :     0.001618
      dyz     :     0.000616
      dx2y2   :     0.003328
      dxy     :     0.007146
  2 O s       :     3.491134  s :     3.491134
      pz      :     1.670793  p :     4.794385
      px      :     1.532092
      py      :     1.591499
      dz2     :     0.002960  d :     0.012931
      dxz     :     0.000330
      dyz     :     0.000554
      dx2y2   :     0.001247
      dxy     :     0.007839
  3 H s       :     0.714640  s :     0.714640
      pz      :     0.042625  p :     0.182133
      px      :     0.069698
      py      :     0.069810

SPIN
  0 Tis       :     0.047488  s :     0.047488
      pz      :     0.005541  p :     0.012769
      px      :     0.002702
      py      :     0.004525
      dz2     :     0.593127  d :     1.035280
      dxz     :     0.022601
      dyz     :     0.008234
      dx2y2   :     0.107814
      dxy     :     0.303503
      f0      :    -0.000054  f :    -0.001105
      f+1     :    -0.000097
      f-1     :    -0.000049
      f+2     :    -0.000029
      f-2     :    -0.000117
      f+3     :    -0.000398
      f-3     :    -0.000362
  1 O s       :    -0.000370  s :    -0.000370
      pz      :    -0.025120  p :    -0.082193
      px      :    -0.027668
      py      :    -0.029406
      dz2     :     0.000099  d :     0.000634
      dxz     :     0.000077
      dyz     :     0.000029
      dx2y2   :     0.000162
      dxy     :     0.000268
  2 O s       :    -0.000362  s :    -0.000362
      pz      :    -0.010931  p :    -0.016315
      px      :     0.000476
      py      :    -0.005860
      dz2     :     0.000083  d :     0.000327
      dxz     :     0.000021
      dyz     :     0.000015
      dx2y2   :     0.000055
      dxy     :     0.000152
  3 H s       :     0.003087  s :     0.003087
      pz      :    -0.000268  p :     0.000761
      px      :    -0.000047
      py      :     0.001077


                      *****************************
                      * MAYER POPULATION ANALYSIS *
                      *****************************

  NA   - Mulliken gross atomic population
  ZA   - Total nuclear charge
  QA   - Mulliken gross atomic charge
  VA   - Mayer's total valence
  BVA  - Mayer's bonded valence
  FA   - Mayer's free valence

  ATOM       NA         ZA         QA         VA         BVA        FA
  0 Ti    21.0871    22.0000     0.9129     4.2373     3.2547     0.9826
  1 O      8.5697     8.0000    -0.5697     2.2181     2.2154     0.0028
  2 O      8.5650     8.0000    -0.5650     2.0470     2.0468     0.0002
  3 H      0.7783     1.0000     0.2217     0.9778     0.9778     0.0000

  Mayer bond orders larger than 0.100000
B(  0-Ti,  1-O ) :   2.1418 B(  0-Ti,  2-O ) :   1.0583 B(  2-O ,  3-H ) :   0.9191 


-------
TIMINGS
-------

Total SCF time: 0 days 0 hours 2 min 14 sec 

Total time                  ....     134.739 sec
Sum of individual times     ....      96.725 sec  ( 71.8%)

Fock matrix formation       ....      29.294 sec  ( 21.7%)
  Split-RI-J                ....      11.049 sec  ( 37.7% of F)
  XC integration            ....       5.600 sec  ( 19.1% of F)
    Basis function eval.    ....       0.301 sec  (  5.4% of XC)
    Density eval.           ....       0.431 sec  (  7.7% of XC)
    XC-Functional eval.     ....       0.200 sec  (  3.6% of XC)
    XC-Potential eval.      ....       0.333 sec  (  5.9% of XC)
Diagonalization             ....      10.510 sec  (  7.8%)
Density matrix formation    ....       4.710 sec  (  3.5%)
Population analysis         ....       0.485 sec  (  0.4%)
Initial guess               ....       0.723 sec  (  0.5%)
Orbital Transformation      ....      28.366 sec  ( 21.1%)
Orbital Orthonormalization  ....       0.000 sec  (  0.0%)
DIIS solution               ....      14.153 sec  ( 10.5%)
Grid generation             ....       1.039 sec  (  0.8%)

Maximum memory used throughout the entire SCF-calculation: 9.6 MB

-------------------------   --------------------
FINAL SINGLE POINT ENERGY      -997.227657272705
-------------------------   --------------------



           ************************************************************
           *        Program running with 5 parallel MPI-processes     *
           *              working on a common directory               *
           ************************************************************
------------------------------------------------------------------------------
                         ORCA SCF GRADIENT CALCULATION
------------------------------------------------------------------------------

Gradient of the Kohn-Sham DFT energy:
Kohn-Sham wavefunction type      ... UKS
Hartree-Fock exchange scaling    ...    0.000
Number of operators              ...    2
Number of atoms                  ...    4
Basis set dimensions             ...   64
Integral neglect threshold       ... 2.5e-11
Integral primitive cutoff        ... 2.5e-12
SHARK Integral package           ... ON

Nuc. rep. gradient       (SHARK) ... done (  0.0 sec)
HCore & Overlap gradient (SHARK) ... done (  0.1 sec)
RI-J gradient            (SHARK) ... done (  0.4 sec)
Exchange-correlation gradient    ... done

------------------
CARTESIAN GRADIENT
------------------

   1   Ti  :    0.027653153    0.004752081   -0.000000048
   2   O   :    0.013139533    0.011152602    0.000000030
   3   O   :   -0.037623753   -0.003791630    0.000000011
   4   H   :   -0.003168932   -0.012113054    0.000000008

Difference to translation invariance:
           :   -0.0000000000   -0.0000000001    0.0000000000

Difference to rotation invariance:
           :   -0.0000000028   -0.0000000134   -0.0013070406

Norm of the cartesian gradient     ...    0.0516817033
RMS gradient                       ...    0.0149192227
MAX gradient                       ...    0.0376237534

-------
TIMINGS
-------

Total SCF gradient time            ...        1.277 sec

One electron gradient       ....       0.052 sec  (  4.1%)
RI-J Coulomb gradient       ....       0.390 sec  ( 30.5%)
XC gradient                 ....       0.164 sec  ( 12.8%)
CPCM gradient               ....       0.145 sec  ( 11.4%)
   A-Matrix (El+Nuc)        ....       0.009 sec  (  0.7%)
   Potential                ....       0.136 sec  ( 10.6%)

Maximum memory used throughout the entire SCFGRAD-calculation: 6.9 MB
------------------------------------------------------------------------------
                         ORCA GEOMETRY RELAXATION STEP
------------------------------------------------------------------------------

Reading the OPT-File                    .... done
Getting information on internals        .... done
Copying old internal coords+grads       .... done
Making the new internal coordinates     .... (new redundants).... done
Validating the new internal coordinates .... (new redundants).... done
Calculating the B-matrix                .... done
Calculating the G,G- and P matrices     .... done
Transforming gradient to internals      .... done
Projecting the internal gradient        .... done
Number of atoms                         ....   4
Number of internal coordinates          ....   6
Current Energy                          ....  -997.227657273 Eh
Current gradient norm                   ....     0.051681703 Eh/bohr
Maximum allowed component of the step   ....  0.300
Current trust radius                    ....  0.300
Evaluating the initial hessian          ....  (Almloef) done
Projecting the Hessian                  .... done
Forming the augmented Hessian           .... done
Diagonalizing the augmented Hessian     .... done
Last element of RFO vector              ....  0.998098144
Lowest eigenvalues of augmented Hessian:
 -0.002852268  0.451887574  0.465331559  0.785620019  0.785692505
Length of the computed step             ....  0.061762381
The final length of the internal step   ....  0.061762381
Converting the step to cartesian space:
 Initial RMS(Int)=    0.0252143866
Transforming coordinates:
 Iter   0:  RMS(Cart)=    0.0256346219 RMS(Int)=    0.0251968034
 Iter   1:  RMS(Cart)=    0.0002862130 RMS(Int)=    0.0004679781
 Iter   2:  RMS(Cart)=    0.0000085537 RMS(Int)=    0.0000092847
 Iter   3:  RMS(Cart)=    0.0000003015 RMS(Int)=    0.0000004461
 Iter   4:  RMS(Cart)=    0.0000000078 RMS(Int)=    0.0000000110
done
Storing new coordinates                 .... done

                                .--------------------.
          ----------------------|Geometry convergence|-------------------------
          Item                value                   Tolerance       Converged
          ---------------------------------------------------------------------
          RMS gradient        0.0210082094            0.0005000000      NO
          MAX gradient        0.0430407831            0.0020000000      NO
          RMS step            0.0252143866            0.0070000000      NO
          MAX step            0.0447427878            0.0100000000      NO
          ........................................................
          Max(Bonds)      0.0205      Max(Angles)    2.56
          Max(Dihed)        0.00      Max(Improp)    0.00
          ---------------------------------------------------------------------

The optimization has not yet converged - more geometry cycles are needed


    ---------------------------------------------------------------------------
                         Redundant Internal Coordinates
                            (Angstroem and degrees)

        Definition                    Value    dE/dq     Step     New-Value
    ----------------------------------------------------------------------------
     1. B(O   1,Ti  0)                1.6378 -0.017020  0.0039    1.6418   
     2. B(O   2,Ti  0)                1.8339 -0.043041  0.0205    1.8544   
     3. B(H   3,O   2)                0.9903  0.006022 -0.0068    0.9835   
     4. L(O   1,Ti  0,O   2,H   3, 2) 180.00  0.000000   -0.00    180.00   
     5. L(O   1,Ti  0,O   2,H   3, 1) 179.98  0.007569   -0.55    179.43   
     6. A(Ti  0,O   2,H   3)          104.49 -0.020306    2.56    107.06   
    ----------------------------------------------------------------------------

         *************************************************************
         *                GEOMETRY OPTIMIZATION CYCLE   2            *
         *************************************************************
---------------------------------
CARTESIAN COORDINATES (ANGSTROEM)
---------------------------------
  Ti    -1.689206    2.453510   -0.000000
  O     -3.087610    1.593354   -0.000001
  O     -0.100170    3.409375    0.000000
  H      0.631647    2.752391    0.000000

----------------------------
CARTESIAN COORDINATES (A.U.)
----------------------------
  NO LB      ZA    FRAG     MASS         X           Y           Z
   0 Ti   22.0000    0    47.900   -3.192136    4.636462   -0.000000
   1 O     8.0000    0    15.999   -5.834737    3.011002   -0.000002
   2 O     8.0000    0    15.999   -0.189293    6.442784    0.000000
   3 H     1.0000    0     1.008    1.193640    5.201266    0.000000

--------------------------------
INTERNAL COORDINATES (ANGSTROEM)
--------------------------------
 Ti     0   0   0     0.000000000000     0.00000000     0.00000000
 O      1   0   0     1.641768005263     0.00000000     0.00000000
 O      1   2   0     1.854376733257   179.43285988     0.00000000
 H      3   1   2     0.983454650106   107.05583079     0.00000000

---------------------------
INTERNAL COORDINATES (A.U.)
---------------------------
 Ti     0   0   0     0.000000000000     0.00000000     0.00000000
 O      1   0   0     3.102491905381     0.00000000     0.00000000
 O      1   2   0     3.504264174970   179.43285988     0.00000000
 H      3   1   2     1.858459953832   107.05583079     0.00000000



           ************************************************************
           *        Program running with 5 parallel MPI-processes     *
           *              working on a common directory               *
           ************************************************************
------------------------------------------------------------------------------
                   ___                                                        
                  /   \      - P O W E R E D   B Y -                         
                 /     \                                                     
                 |  |  |   _    _      __       _____    __    __             
                 |  |  |  | |  | |    /  \     |  _  \  |  |  /  |          
                  \  \/   | |  | |   /    \    | | | |  |  | /  /          
                 / \  \   | |__| |  /  /\  \   | |_| |  |  |/  /          
                |  |  |   |  __  | /  /__\  \  |    /   |      \           
                |  |  |   | |  | | |   __   |  |    \   |  |\   \          
                \     /   | |  | | |  |  |  |  | |\  \  |  | \   \       
                 \___/    |_|  |_| |__|  |__|  |_| \__\ |__|  \__/        
                                                                              
                      - O R C A' S   B I G   F R I E N D -                    
                                      &                                       
                       - I N T E G R A L  F E E D E R -                       
                                                                              
 v1 FN, 2020, v2 2021                                                         
------------------------------------------------------------------------------


Reading SHARK input file inputAdvance_COMPLETE.SHARKINP.tmp ... ok
----------------------
SHARK INTEGRAL PACKAGE
----------------------

Number of atoms                             ...      4
Number of basis functions                   ...     64
Number of shells                            ...     26
Maximum angular momentum                    ...      3
Integral batch strategy                     ... SHARK/LIBINT Hybrid
RI-J (if used) integral strategy            ... SPLIT-RIJ (Revised 2003 algorithm where possible)
Printlevel                                  ...      1
Contraction scheme used                     ... SEGMENTED contraction
Coulomb Range Separation                    ... NOT USED
Exchange Range Separation                   ... NOT USED
Finite Nucleus Model                        ... NOT USED
Auxiliary Coulomb fitting basis             ... AVAILABLE
   # of basis functions in Aux-J            ...    198
   # of shells in Aux-J                     ...     58
   Maximum angular momentum in Aux-J        ...      4
Auxiliary J/K fitting basis                 ... NOT available
Auxiliary Correlation fitting basis         ... NOT available
Auxiliary 'external' fitting basis          ... NOT available
Integral threshold                          ...     2.500000e-11
Primitive cut-off                           ...     2.500000e-12
Primitive pair pre-selection threshold      ...     2.500000e-12

Calculating pre-screening integrals         ... done (  0.1 sec) Dimension = 26
Organizing shell pair data                  ... done (  0.1 sec)
Shell pair information
Total number of shell pairs                 ...       351
Shell pairs after pre-screening             ...       338
Total number of primitive shell pairs       ...      1780
Primitive shell pairs kept                  ...      1402
          la=0 lb=0:     85 shell pairs
          la=1 lb=0:     99 shell pairs
          la=1 lb=1:     36 shell pairs
          la=2 lb=0:     50 shell pairs
          la=2 lb=1:     32 shell pairs
          la=2 lb=2:     10 shell pairs
          la=3 lb=0:     13 shell pairs
          la=3 lb=1:      8 shell pairs
          la=3 lb=2:      4 shell pairs
          la=3 lb=3:      1 shell pairs

Calculating one electron integrals          ... done (  0.0 sec)
Calculating RI/J V-Matrix + Cholesky decomp.... done (  0.2 sec)
Calculating Nuclear repulsion               ... done (  0.0 sec) ENN=    127.006756611437 Eh

SHARK setup successfully completed in   0.6 seconds

Maximum memory used throughout the entire GTOINT-calculation: 14.1 MB


           ************************************************************
           *        Program running with 5 parallel MPI-processes     *
           *              working on a common directory               *
           ************************************************************

Diagonalization of the overlap matrix:
Smallest eigenvalue                        ... 1.365e-02
Time for diagonalization                   ...    0.012 sec
Threshold for overlap eigenvalues          ... 1.000e-08
Number of eigenvalues below threshold      ... 0
Time for construction of square roots      ...    0.112 sec
Total time needed                          ...    0.157 sec

-------------------
DFT GRID GENERATION
-------------------

General Integration Accuracy     IntAcc      ... 4.388
Radial Grid Type                 RadialGrid  ... OptM3 with GC (2021)
Angular Grid (max. ang.)         AngularGrid ... 4 (Lebedev-302)
Angular grid pruning method      GridPruning ... 4 (adaptive)
Weight generation scheme         WeightScheme... Becke
Basis function cutoff            BFCut       ... 1.0000e-11
Integration weight cutoff        WCut        ... 1.0000e-14
Angular grids for H and He will be reduced by one unit
Partially contracted basis set               ... off
Rotationally invariant grid construction     ... off

Total number of grid points                  ...    26834
Total number of batches                      ...      421
Average number of points per batch           ...       63
Average number of grid points per atom       ...     6709
Time for grid setup =    0.647 sec


--------------------
CPCM SOLVATION MODEL
--------------------
CPCM parameters:
  Epsilon                                         ...      80.4000
  Refrac                                          ...       1.3300
  Rsolv                                           ...       1.3000
  Surface type                                    ... GAUSSIAN VDW
  Epsilon function type                           ...        COSMO
Radii:
 Radius for Ti used is    4.5353 Bohr (=   2.4000 Ang.)
 Radius for O  used is    3.4469 Bohr (=   1.8240 Ang.)
 Radius for H  used is    2.4944 Bohr (=   1.3200 Ang.)
Calculating surface                               ...        done! (  0.0s)
GEPOL surface points                              ...          303
GEPOL Volume                                      ...     529.9512
GEPOL Surface-area                                ...     337.0142
Calculating surface distance matrix               ...        done! (  0.0s)
Performing Cholesky decomposition & store         ...        done! (  0.0s)
Overall time for CPCM initialization              ...                 0.0s
--------------
SCF ITERATIONS
--------------
ITER       Energy         Delta-E        Max-DP      RMS-DP      [F,P]     Damp
               ***  Starting incremental Fock matrix formation  ***
  0   -997.2299015806   0.000000000000 0.00162808  0.00007355  0.0028139 0.7000
  1   -997.2299805880  -0.000079007471 0.00147376  0.00006970  0.0021192 0.7000
                               ***Turning on DIIS***
  2   -997.2300432130  -0.000062624953 0.00369065  0.00018743  0.0015241 0.0000
  3   -997.2301939043  -0.000150691323 0.01294684  0.00034947  0.0002398 0.0000
  4   -997.2301958179  -0.000001913622 0.00034706  0.00001065  0.0012729 0.0000
  5   -997.2302028627  -0.000007044770 0.00174360  0.00003998  0.0009435 0.0000
  6   -997.2302087459  -0.000005883233 0.00139133  0.00003614  0.0004996 0.0000
  7   -997.2302097711  -0.000001025161 0.00104272  0.00002855  0.0003317 0.0000
  8   -997.2302107935  -0.000001022418 0.00031404  0.00001005  0.0001530 0.0000
  9   -997.2302109951  -0.000000201586 0.00024033  0.00000700  0.0001014 0.0000
 10   -997.2302109983  -0.000000003227 0.00009672  0.00000375  0.0000930 0.0000
 11   -997.2302110590  -0.000000060665 0.00002090  0.00000064  0.0000140 0.0000
 12   -997.2302110599  -0.000000000894 0.00000767  0.00000023  0.0000038 0.0000
                 **** Energy Check signals convergence ****

               *****************************************************
               *                     SUCCESS                       *
               *           SCF CONVERGED AFTER  13 CYCLES          *
               *****************************************************

Total Energy       :         -997.23021106 Eh          -27136.01361 eV
  Last Energy change         ...    2.0623e-10  Tolerance :   1.0000e-08
  Last MAX-Density change    ...    3.7271e-07  Tolerance :   1.0000e-07
             **** THE GBW FILE WAS UPDATED (inputAdvance_COMPLETE.gbw) ****
             **** DENSITY inputAdvance_COMPLETE.scfp WAS UPDATED ****
             **** ENERGY FILE WAS UPDATED (inputAdvance_COMPLETE.en.tmp) ****
----------------------
UHF SPIN CONTAMINATION
----------------------

Warning: in a DFT calculation there is little theoretical justification to 
         calculate <S**2> as in Hartree-Fock theory. We will do it anyways
         but you should keep in mind that the values have only limited relevance

Expectation value of <S**2>     :     0.755854
Ideal value S*(S+1) for S=0.5   :     0.750000
Deviation                       :     0.005854

             **** THE GBW FILE WAS UPDATED (inputAdvance_COMPLETE.gbw) ****
             **** DENSITY inputAdvance_COMPLETE.scfp WAS UPDATED ****
Total SCF time: 0 days 0 hours 0 min 33 sec 

Maximum memory used throughout the entire SCF-calculation: 9.5 MB

-------------------------   --------------------
FINAL SINGLE POINT ENERGY      -997.230211059677
-------------------------   --------------------



           ************************************************************
           *        Program running with 5 parallel MPI-processes     *
           *              working on a common directory               *
           ************************************************************
------------------------------------------------------------------------------
                         ORCA SCF GRADIENT CALCULATION
------------------------------------------------------------------------------

Gradient of the Kohn-Sham DFT energy:
Kohn-Sham wavefunction type      ... UKS
Hartree-Fock exchange scaling    ...    0.000
Number of operators              ...    2
Number of atoms                  ...    4
Basis set dimensions             ...   64
Integral neglect threshold       ... 2.5e-11
Integral primitive cutoff        ... 2.5e-12
SHARK Integral package           ... ON

Nuc. rep. gradient       (SHARK) ... done (  0.0 sec)
HCore & Overlap gradient (SHARK) ... done (  0.1 sec)
RI-J gradient            (SHARK) ... done (  0.5 sec)
Exchange-correlation gradient    ... done

------------------
CARTESIAN GRADIENT
------------------

   1   Ti  :    0.023281669    0.000726252   -0.000000041
   2   O   :    0.007770183    0.008622081    0.000000023
   3   O   :   -0.025387008   -0.000636943    0.000000012
   4   H   :   -0.005664845   -0.008711390    0.000000006

Difference to translation invariance:
           :    0.0000000001   -0.0000000000    0.0000000000

Difference to rotation invariance:
           :    0.0000000027   -0.0000000155   -0.0012168060

Norm of the cartesian gradient     ...    0.0378175122
RMS gradient                       ...    0.0109169754
MAX gradient                       ...    0.0253870076

-------
TIMINGS
-------

Total SCF gradient time            ...        1.295 sec

One electron gradient       ....       0.053 sec  (  4.1%)
RI-J Coulomb gradient       ....       0.451 sec  ( 34.8%)
XC gradient                 ....       0.190 sec  ( 14.7%)
CPCM gradient               ....       0.125 sec  (  9.7%)
   A-Matrix (El+Nuc)        ....       0.010 sec  (  0.8%)
   Potential                ....       0.115 sec  (  8.9%)

Maximum memory used throughout the entire SCFGRAD-calculation: 7.0 MB
------------------------------------------------------------------------------
                         ORCA GEOMETRY RELAXATION STEP
------------------------------------------------------------------------------

Reading the OPT-File                    .... done
Getting information on internals        .... done
Copying old internal coords+grads       .... done
Making the new internal coordinates     .... (new redundants).... done
Validating the new internal coordinates .... (new redundants).... done
Calculating the B-matrix                .... done
Calculating the G,G- and P matrices     .... done
Transforming gradient to internals      .... done
Projecting the internal gradient        .... done
Number of atoms                         ....   4
Number of internal coordinates          ....   6
Current Energy                          ....  -997.230211060 Eh
Current gradient norm                   ....     0.037817512 Eh/bohr
Maximum allowed component of the step   ....  0.300
Current trust radius                    ....  0.300
Updating the Hessian (BFGS)             .... done
Forming the augmented Hessian           .... done
Diagonalizing the augmented Hessian     .... done
Last element of RFO vector              ....  0.966909609
Lowest eigenvalues of augmented Hessian:
 -0.009454952  0.129916811  0.487694470  0.704783124  0.785620019
Length of the computed step             ....  0.263850107
The final length of the internal step   ....  0.263850107
Converting the step to cartesian space:
 Initial RMS(Int)=    0.1077163551
Transforming coordinates:
 Iter   0:  RMS(Cart)=    0.1062932270 RMS(Int)=    0.1050422252
 Iter   1:  RMS(Cart)=    0.0050587863 RMS(Int)=    0.0092065758
 Iter   2:  RMS(Cart)=    0.0010311641 RMS(Int)=    0.0012333108
 Iter   3:  RMS(Cart)=    0.0001113727 RMS(Int)=    0.0001891301
 Iter   4:  RMS(Cart)=    0.0000220872 RMS(Int)=    0.0000267905
 Iter   5:  RMS(Cart)=    0.0000024253 RMS(Int)=    0.0000041250
 Iter   6:  RMS(Cart)=    0.0000004792 RMS(Int)=    0.0000005789
 Iter   7:  RMS(Cart)=    0.0000000526 RMS(Int)=    0.0000000900
done
Storing new coordinates                 .... done

                                .--------------------.
          ----------------------|Geometry convergence|-------------------------
          Item                value                   Tolerance       Converged
          ---------------------------------------------------------------------
          Energy change      -0.0025537870            0.0000300000      NO
          RMS gradient        0.0161502222            0.0005000000      NO
          MAX gradient        0.0313976451            0.0020000000      NO
          RMS step            0.1077163551            0.0070000000      NO
          MAX step            0.2082743117            0.0100000000      NO
          ........................................................
          Max(Bonds)      0.0776      Max(Angles)   11.93
          Max(Dihed)        0.00      Max(Improp)    0.00
          ---------------------------------------------------------------------

The optimization has not yet converged - more geometry cycles are needed


    ---------------------------------------------------------------------------
                         Redundant Internal Coordinates
                            (Angstroem and degrees)

        Definition                    Value    dE/dq     Step     New-Value
    ----------------------------------------------------------------------------
     1. B(O   1,Ti  0)                1.6418 -0.011120  0.0137    1.6554   
     2. B(O   2,Ti  0)                1.8544 -0.031398  0.0776    1.9320   
     3. B(H   3,O   2)                0.9835  0.001522 -0.0109    0.9725   
     4. L(O   1,Ti  0,O   2,H   3, 2) 180.00  0.000000   -0.00    180.00   
     5. L(O   1,Ti  0,O   2,H   3, 1) 179.43  0.009709   -3.45    175.98   
     6. A(Ti  0,O   2,H   3)          107.06 -0.018945   11.93    118.99   
    ----------------------------------------------------------------------------

         *************************************************************
         *                GEOMETRY OPTIMIZATION CYCLE   3            *
         *************************************************************
---------------------------------
CARTESIAN COORDINATES (ANGSTROEM)
---------------------------------
  Ti    -1.767010    2.448892   -0.000000
  O     -3.168586    1.567970   -0.000001
  O     -0.063254    3.359859    0.000000
  H      0.753512    2.831908    0.000000

----------------------------
CARTESIAN COORDINATES (A.U.)
----------------------------
  NO LB      ZA    FRAG     MASS         X           Y           Z
   0 Ti   22.0000    0    47.900   -3.339165    4.627736   -0.000000
   1 O     8.0000    0    15.999   -5.987760    2.963034   -0.000002
   2 O     8.0000    0    15.999   -0.119532    6.349214    0.000000
   3 H     1.0000    0     1.008    1.423931    5.351531    0.000000

--------------------------------
INTERNAL COORDINATES (ANGSTROEM)
--------------------------------
 Ti     0   0   0     0.000000000000     0.00000000     0.00000000
 O      1   0   0     1.655427184674     0.00000000     0.00000000
 O      1   2   0     1.932005977173   175.98230405     0.00000000
 H      3   1   2     0.972542288574   118.98906885     0.00000000

---------------------------
INTERNAL COORDINATES (A.U.)
---------------------------
 Ti     0   0   0     0.000000000000     0.00000000     0.00000000
 O      1   0   0     3.128304013683     0.00000000     0.00000000
 O      1   2   0     3.650962185957   175.98230405     0.00000000
 H      3   1   2     1.837838579062   118.98906885     0.00000000



           ************************************************************
           *        Program running with 5 parallel MPI-processes     *
           *              working on a common directory               *
           ************************************************************
------------------------------------------------------------------------------
                   ___                                                        
                  /   \      - P O W E R E D   B Y -                         
                 /     \                                                     
                 |  |  |   _    _      __       _____    __    __             
                 |  |  |  | |  | |    /  \     |  _  \  |  |  /  |          
                  \  \/   | |  | |   /    \    | | | |  |  | /  /          
                 / \  \   | |__| |  /  /\  \   | |_| |  |  |/  /          
                |  |  |   |  __  | /  /__\  \  |    /   |      \           
[...]
Initial guess               ....       0.052 sec  (  0.2%)
Orbital Transformation      ....       0.000 sec  (  0.0%)
Orbital Orthonormalization  ....       0.017 sec  (  0.1%)
DIIS solution               ....       5.515 sec  ( 24.7%)
Grid generation             ....       0.619 sec  (  2.8%)

Maximum memory used throughout the entire SCF-calculation: 9.6 MB

-------------------------   --------------------
FINAL SINGLE POINT ENERGY      -997.282210485088
-------------------------   --------------------

                                *** OPTIMIZATION RUN DONE ***

                            ***************************************
                            *     ORCA property calculations      *
                            ***************************************

                                    ---------------------
                                    Active property flags
                                    ---------------------
   (+) Dipole Moment
   (+) Polarizability


------------------------------------------------------------------------------
                       ORCA ELECTRIC PROPERTIES CALCULATION
------------------------------------------------------------------------------

Dipole Moment Calculation                       ... on
Quadrupole Moment Calculation                   ... off
Polarizability Calculation                      ... Analytic (CP-SCF)
GBWName                                         ... inputAdvance_COMPLETE.gbw
Electron density                                ... inputAdvance_COMPLETE.scfp
The origin for moment calculation is the CENTER OF MASS  = (-3.247751,  5.185619  0.000000)

-------------
DIPOLE MOMENT
-------------
                                X             Y             Z
Electronic contribution:     -3.38303       2.61038       0.00001
Nuclear contribution   :      3.15899      -1.24171      -0.00000
                        -----------------------------------------
Total Dipole Moment    :     -0.22404       1.36866       0.00000
                        -----------------------------------------
Magnitude (a.u.)       :      1.38688
Magnitude (Debye)      :      3.52517



--------------------
Rotational spectrum 
--------------------
 
Rotational constants in cm-1:     0.813829     0.266114     0.200540 
Rotational constants in MHz : 24397.973664  7977.909861  6012.031596 

 Dipole components along the rotational axes: 
x,y,z [a.u.] :     0.581787     1.258953     0.000001 
x,y,z [Debye]:     1.478785     3.200004     0.000004 

 
Transforming and storing MO dipole integrals   ... done

                ... starting polarizability calculation

The origin for moment calculation is the CENTER OF MASS  = (-3.247751,  5.185619  0.000000)
Opening the Dipole integral file               ... (inputAdvance_COMPLETE.dmo.tmp) done
Reading Dipole-MO integrals                    ... done
Solving CP-SCF equations                       ... 

           ************************************************************
           *        Program running with 5 parallel MPI-processes     *
           *              working on a common directory               *
           ************************************************************

------------------------------------------------------------------------------
                           ORCA CP-SCF CALCULATION
------------------------------------------------------------------------------

Input orbitals are from        ... inputAdvance_COMPLETE.gbw
Input Perturbation             ... inputAdvance_COMPLETE.cpv.tmp
Wavefunction output            ... inputAdvance_COMPLETE.cpu.tmp
Perturbation mode              ... Real perturbation (singlet)
Solver                         ... POPLE
Max. number of iterations      ... 64
Convergence tolerance          ... 1.000e-04
Integral handling              ... Direct
DFT GridXC                     ... 1
Number of perturbations        ... 3
Number of operators            ... 2
Orbital ranges used for CP-SCF:
 Operator 0:  Orbitals   0... 19  to  20... 63
 Operator 1:  Orbitals   0... 18  to  19... 63
Variables per perturbation     ... 1735
DFT calculation                         ... on
XC functional terms                     ... on
Exchange functional (SCF)               ... Slater
Exchange functional (CP-SCF)            ... Slater
   X-Alpha parameter    XAlpha (SCF)    ...  0.666667
   X-Alpha parameter    XAlpha (CP-SCF) ...  0.666667
Correlation functional (SCF)            ... VWN-5
Correlation functional (CP-SCF)         ... VWN-5

CP-SCF GRID
-----------

General Integration Accuracy     IntAcc      ... 3.467
Radial Grid Type                 RadialGrid  ... OptM3 with GC (2021)
Angular Grid (max. ang.)         AngularGrid ... 1 (Lebedev-50)
Angular grid pruning method      GridPruning ... 4 (adaptive)
Weight generation scheme         WeightScheme... Becke
Basis function cutoff            BFCut       ... 1.0000e-11
Integration weight cutoff        WCut        ... 1.0000e-14
Angular grids for H and He will be reduced by one unit
Partially contracted basis set               ... off
Rotationally invariant grid construction     ... off

Total number of grid points                  ...     6665
Total number of batches                      ...      106
Average number of points per batch           ...       62
Average number of grid points per atom       ...     1666

Recalculating density on grid  ... done
Calculating the xc-kernel      ... done
Memory available               ... 1020.2 MB
Memory needed per perturbation ...   0.5 MB
Perturbations treated per batch... 3
Number of batches              ... 1
     CP-SCF ITERATION   0:   5.2342e+01 (   0.7 sec   0/  3 done)
     CP-SCF ITERATION   1:   4.3447e+00 (   0.7 sec   0/  3 done)
     CP-SCF ITERATION   2:   1.3192e+00 (   0.7 sec   0/  3 done)
     CP-SCF ITERATION   3:   8.8711e-01 (   0.7 sec   0/  3 done)
     CP-SCF ITERATION   4:   2.1557e-01 (   0.5 sec   0/  3 done)
     CP-SCF ITERATION   5:   6.2210e-02 (   0.4 sec   0/  3 done)
     CP-SCF ITERATION   6:   1.1779e-02 (   0.5 sec   0/  3 done)
     CP-SCF ITERATION   7:   2.8109e-03 (   0.4 sec   0/  3 done)
     CP-SCF ITERATION   8:   7.1258e-04 (   0.5 sec   0/  3 done)
     CP-SCF ITERATION   9:   2.3729e-04 (   0.4 sec   1/  3 done)
     CP-SCF ITERATION  10:   5.8205e-05 (   0.4 sec   3/  3 done)
                    *** THE CP-SCF HAS CONVERGED ***
done
Reading CP-SCF coefficients                    ... done
Doing the polarizability tensor                ... done
Cleaning up                                    ... done

-------------------------
THE POLARIZABILITY TENSOR
-------------------------

The raw cartesian tensor (atomic units):
   61.92619     -7.13349      0.00003  
   -7.13349     60.39253     -0.00005  
    0.00003     -0.00005     91.28153  
diagonalized tensor: 
   53.98477     68.33395     91.28153  

    0.66825     -0.74394      0.00000  
    0.74394      0.66825     -0.00000  
    0.00000      0.00000      1.00000  

Isotropic polarizability :  71.20008


----------------------------------------------------------------------------
                           ORCA NUMERICAL FREQUENCIES
                              (5-process run)
----------------------------------------------------------------------------

Number of atoms                ... 4
Central differences            ... used
Number of displacements        ... 24
Numerical increment            ... 5.000e-03 bohr
IR-spectrum generation         ... on
Raman-spectrum generation      ... on
Polarizability calculation     ... 1
Surface Crossing Hessian       ... off

The output will be reduced. Please look at the following files:
SCF program output             ... >inputAdvance_COMPLETE.lastscf
Integral program output        ... >inputAdvance_COMPLETE.lastint
Gradient program output        ... >inputAdvance_COMPLETE.lastgrad
Dipole moment program output   ... >inputAdvance_COMPLETE.lastmom
AutoCI program output          ... >inputAdvance_COMPLETE.lastautoci

	<< Calculating on displaced geometry   5 (of  24) >>
	<< Calculating on displaced geometry   3 (of  24) >>
	<< Calculating on displaced geometry   1 (of  24) >>
	<< Calculating on displaced geometry   2 (of  24) >>
	<< Calculating on displaced geometry   4 (of  24) >>
	<< Calculating on displaced geometry   7 (of  24) >>
	<< Calculating on displaced geometry   8 (of  24) >>
	<< Calculating on displaced geometry   6 (of  24) >>
	<< Calculating on displaced geometry   9 (of  24) >>
	<< Calculating on displaced geometry  10 (of  24) >>
	<< Calculating on displaced geometry  11 (of  24) >>
	<< Calculating on displaced geometry  12 (of  24) >>
	<< Calculating on displaced geometry  13 (of  24) >>
	<< Calculating on displaced geometry  14 (of  24) >>
	<< Calculating on displaced geometry  15 (of  24) >>
	<< Calculating on displaced geometry  17 (of  24) >>
	<< Calculating on displaced geometry  16 (of  24) >>
	<< Calculating on displaced geometry  18 (of  24) >>
	<< Calculating on displaced geometry  19 (of  24) >>
	<< Calculating on displaced geometry  20 (of  24) >>
	<< Calculating on displaced geometry  21 (of  24) >>
	<< Calculating on displaced geometry  22 (of  24) >>
	<< Calculating on displaced geometry  23 (of  24) >>
	<< Calculating on displaced geometry  24 (of  24) >>

-----------------------
VIBRATIONAL FREQUENCIES
-----------------------

Scaling factor for frequencies =  1.000000000 (already applied!)

   0:         0.00 cm**-1
   1:         0.00 cm**-1
   2:         0.00 cm**-1
   3:         0.00 cm**-1
   4:         0.00 cm**-1
   5:         0.00 cm**-1
   6:       245.14 cm**-1
   7:       433.24 cm**-1
   8:       456.73 cm**-1
   9:       765.02 cm**-1
  10:      1047.64 cm**-1
  11:      3740.82 cm**-1


------------
NORMAL MODES
------------

These modes are the cartesian displacements weighted by the diagonal matrix
M(i,i)=1/sqrt(m[i]) where m[i] is the mass of the displaced atom
Thus, these vectors are normalized but *not* orthogonal

                  0          1          2          3          4          5    
      0       0.000000   0.000000   0.000000   0.000000   0.000000   0.000000
      1       0.000000   0.000000   0.000000   0.000000   0.000000   0.000000
      2       0.000000   0.000000   0.000000   0.000000   0.000000   0.000000
      3       0.000000   0.000000   0.000000   0.000000   0.000000   0.000000
      4       0.000000   0.000000   0.000000   0.000000   0.000000   0.000000
      5       0.000000   0.000000   0.000000   0.000000   0.000000   0.000000
      6       0.000000   0.000000   0.000000   0.000000   0.000000   0.000000
      7       0.000000   0.000000   0.000000   0.000000   0.000000   0.000000
      8       0.000000   0.000000   0.000000   0.000000   0.000000   0.000000
      9       0.000000   0.000000   0.000000   0.000000   0.000000   0.000000
     10       0.000000   0.000000   0.000000   0.000000   0.000000   0.000000
     11       0.000000   0.000000   0.000000   0.000000   0.000000   0.000000
                  6          7          8          9         10         11    
      0       0.081845   0.000002   0.002340   0.208861   0.050488   0.000000
      1      -0.085208   0.000005  -0.023981  -0.003787   0.314830  -0.000029
      2      -0.000000  -0.020638  -0.000004   0.000001   0.000001   0.000000
      3      -0.327878   0.000008  -0.051334  -0.031201  -0.181144  -0.000248
      4      -0.012164  -0.000000  -0.010962   0.019106  -0.928792  -0.000393
      5       0.000000   0.031352   0.000007  -0.000002  -0.000003  -0.000000
      6       0.048125  -0.000021   0.089163  -0.545040   0.029557   0.044869
      7       0.221693  -0.000022   0.125792   0.006479  -0.011100  -0.043825
      8      -0.000000   0.093123   0.000020  -0.000006  -0.000003  -0.000000
      9       0.551003   0.000117  -0.711604  -0.778954   0.006815  -0.708235
     10       0.723410   0.000120  -0.683015  -0.226150  -0.042687   0.703185
     11       0.000005  -0.994947  -0.000214   0.000066   0.000037   0.000002


-----------
IR SPECTRUM
-----------

 Mode   freq       eps      Int      T**2         TX        TY        TZ
       cm**-1   L/(mol*cm) km/mol    a.u.
----------------------------------------------------------------------------
  6:    245.14   0.009128   46.13  0.011620  ( 0.096368  0.048305  0.000000)
  7:    433.24   0.049212  248.70  0.035448  ( 0.000057  0.000034 -0.188275)
  8:    456.73   0.048018  242.67  0.032809  (-0.156569 -0.091076 -0.000035)
  9:    765.02   0.044406  224.41  0.018114  ( 0.133889 -0.013700  0.000004)
 10:   1047.64   0.065507  331.05  0.019513  ( 0.028533  0.136743  0.000001)
 11:   3740.82   0.085811  433.66  0.007158  (-0.075595  0.037998 -0.000000)

* The epsilon (eps) is given for a Dirac delta lineshape.
** The dipole moment derivative (T) already includes vibrational overlap.

--------------
RAMAN SPECTRUM  
--------------

 Mode    freq (cm**-1)   Activity   Depolarization
-------------------------------------------------------------------
   6:       245.14     20.900000      0.481318
   7:       433.24     40.044184      0.750000
   8:       456.73     14.141563      0.415457
   9:       765.02    159.056075      0.109497
  10:      1047.64    206.881490      0.219628
  11:      3740.82    977.550089      0.143887

The first frequency considered to be a vibration is 6
The total number of vibrations considered is 6


--------------------------
THERMOCHEMISTRY AT 298.15K
--------------------------

Temperature         ... 298.15 K
Pressure            ... 1.00 atm
Total Mass          ... 80.91 AMU

Throughout the following assumptions are being made:
  (1) The electronic state is orbitally nondegenerate
      but the spin degeneracy is treated
  (2) There are no thermally accessible electronically excited states
  (3) Hindered rotations indicated by low frequency modes are not
      treated as such but are treated as vibrations and this may
      cause some error
  (4) All equations used are the standard statistical mechanics
      equations for an ideal gas
  (5) All vibrations are strictly harmonic

freq.     245.14  E(vib)   ...       0.31 
freq.     433.24  E(vib)   ...       0.17 
freq.     456.73  E(vib)   ...       0.16 
freq.     765.02  E(vib)   ...       0.06 
freq.    1047.64  E(vib)   ...       0.02 
freq.    3740.82  E(vib)   ...       0.00 

------------
INNER ENERGY
------------

The inner energy is: U= E(el) + E(ZPE) + E(vib) + E(rot) + E(trans)
    E(el)   - is the total energy from the electronic structure calculation
              = E(kin-el) + E(nuc-el) + E(el-el) + E(nuc-nuc)
    E(ZPE)  - the the zero temperature vibrational energy from the frequency calculation
    E(vib)  - the the finite temperature correction to E(ZPE) due to population
              of excited vibrational states
    E(rot)  - is the rotational thermal energy
    E(trans)- is the translational thermal energy

Summary of contributions to the inner energy U:
Electronic energy                ...   -997.28221049 Eh
Zero point energy                ...      0.01523775 Eh       9.56 kcal/mol
Thermal vibrational correction   ...      0.00114968 Eh       0.72 kcal/mol
Thermal rotational correction    ...      0.00141627 Eh       0.89 kcal/mol
Thermal translational correction ...      0.00141627 Eh       0.89 kcal/mol
-----------------------------------------------------------------------
Total thermal energy                   -997.26299051 Eh


Summary of corrections to the electronic energy:
(perhaps to be used in another calculation)
Total thermal correction                  0.00398223 Eh       2.50 kcal/mol
Non-thermal (ZPE) correction              0.01523775 Eh       9.56 kcal/mol
-----------------------------------------------------------------------
Total correction                          0.01921998 Eh      12.06 kcal/mol


--------
ENTHALPY
--------

The enthalpy is H = U + kB*T
                kB is Boltzmann's constant
Total free energy                 ...   -997.26299051 Eh 
Thermal Enthalpy correction       ...      0.00094421 Eh       0.59 kcal/mol
-----------------------------------------------------------------------
Total Enthalpy                    ...   -997.26204630 Eh


Note: Rotational entropy computed according to Herzberg 
Infrared and Raman Spectra, Chapter V,1, Van Nostrand Reinhold, 1945 
Point Group:  Cs, Symmetry Number:   1  
Rotational constants in cm-1:     0.813829     0.266114     0.200540 

Vibrational entropy computed according to the QRRHO of S. Grimme
Chem.Eur.J. 2012 18 9955


-------
ENTROPY
-------

The entropy contributions are T*S = T*(S(el)+S(vib)+S(rot)+S(trans))
     S(el)   - electronic entropy
     S(vib)  - vibrational entropy
     S(rot)  - rotational entropy
     S(trans)- translational entropy
The entropies will be listed as multiplied by the temperature to get
units of energy

Electronic entropy                ...      0.00065446 Eh      0.41 kcal/mol
Vibrational entropy               ...      0.00176394 Eh      1.11 kcal/mol
Rotational entropy                ...      0.01099156 Eh      6.90 kcal/mol
Translational entropy             ...      0.01857116 Eh     11.65 kcal/mol
-----------------------------------------------------------------------
Final entropy term                ...      0.03198111 Eh     20.07 kcal/mol

In case the symmetry of your molecule has not been determined correctly
or in case you have a reason to use a different symmetry number we print 
out the resulting rotational entropy values for sn=1,12 :
 --------------------------------------------------------
|  sn= 1 | S(rot)=       0.01099156 Eh      6.90 kcal/mol|
|  sn= 2 | S(rot)=       0.01033710 Eh      6.49 kcal/mol|
|  sn= 3 | S(rot)=       0.00995427 Eh      6.25 kcal/mol|
|  sn= 4 | S(rot)=       0.00968265 Eh      6.08 kcal/mol|
|  sn= 5 | S(rot)=       0.00947196 Eh      5.94 kcal/mol|
|  sn= 6 | S(rot)=       0.00929981 Eh      5.84 kcal/mol|
|  sn= 7 | S(rot)=       0.00915427 Eh      5.74 kcal/mol|
|  sn= 8 | S(rot)=       0.00902819 Eh      5.67 kcal/mol|
|  sn= 9 | S(rot)=       0.00891698 Eh      5.60 kcal/mol|
|  sn=10 | S(rot)=       0.00881750 Eh      5.53 kcal/mol|
|  sn=11 | S(rot)=       0.00872751 Eh      5.48 kcal/mol|
|  sn=12 | S(rot)=       0.00864536 Eh      5.43 kcal/mol|
 --------------------------------------------------------


-------------------
GIBBS FREE ENERGY
-------------------

The Gibbs free energy is G = H - T*S

Total enthalpy                    ...   -997.26204630 Eh 
Total entropy correction          ...     -0.03198111 Eh    -20.07 kcal/mol
-----------------------------------------------------------------------
Final Gibbs free energy         ...   -997.29402741 Eh

For completeness - the Gibbs free energy minus the electronic energy
G-E(el)                           ...     -0.01181693 Eh     -7.42 kcal/mol



Timings for individual modules:

Sum of individual times         ...     2208.210 sec (=  36.803 min)
GTO integral calculation        ...      232.716 sec (=   3.879 min)  10.5 %
SCF iterations                  ...     1282.861 sec (=  21.381 min)  58.1 %
Solution of CP-SCF eqns.        ...       17.510 sec (=   0.292 min)   0.8 %
SCF Gradient evaluation         ...      306.448 sec (=   5.107 min)  13.9 %
Geometry relaxation             ...        6.101 sec (=   0.102 min)   0.3 %
Numerical frequency calculation ...      362.574 sec (=   6.043 min)  16.4 %
                             ****ORCA TERMINATED NORMALLY****
TOTAL RUN TIME: 0 days 0 hours 37 minutes 3 seconds 168 msec
