
                                 *****************
                                 * O   R   C   A *
                                 *****************

                                            #,                                       
                                            ###                                      
                                            ####                                     
                                            #####                                    
                                            ######                                   
                                           ########,                                 
                                     ,,################,,,,,                         
                               ,,#################################,,                 
                          ,,##########################################,,             
                       ,#########################################, ''#####,          
                    ,#############################################,,   '####,        
                  ,##################################################,,,,####,       
                ,###########''''           ''''###############################       
              ,#####''   ,,,,##########,,,,          '''####'''          '####       
            ,##' ,,,,###########################,,,                        '##       
           ' ,,###''''                  '''############,,,                           
         ,,##''                                '''############,,,,        ,,,,,,###''
      ,#''                                            '''#######################'''  
     '                                                          ''''####''''         
             ,#######,   #######,   ,#######,      ##                                
            ,#'     '#,  ##    ##  ,#'     '#,    #''#        ######   ,####,        
            ##       ##  ##   ,#'  ##            #'  '#       #        #'  '#        
            ##       ##  #######   ##           ,######,      #####,   #    #        
            '#,     ,#'  ##    ##  '#,     ,#' ,#      #,         ##   #,  ,#        
             '#######'   ##     ##  '#######'  #'      '#     #####' # '####'        



                  #######################################################
                  #                        -***-                        #
                  #          Department of theory and spectroscopy      #
                  #    Directorship and core code : Frank Neese         #
                  #        Max Planck Institute fuer Kohlenforschung    #
                  #                Kaiser Wilhelm Platz 1               #
                  #                 D-45470 Muelheim/Ruhr               #
                  #                      Germany                        #
                  #                                                     #
                  #                  All rights reserved                #
                  #                        -***-                        #
                  #######################################################


                         Program Version 5.0.3 -  RELEASE  -


 With contributions from (in alphabetic order):
   Daniel Aravena         : Magnetic Suceptibility
   Michael Atanasov       : Ab Initio Ligand Field Theory (pilot matlab implementation)
   Alexander A. Auer      : GIAO ZORA, VPT2 properties, NMR spectrum
   Ute Becker             : Parallelization
   Giovanni Bistoni       : ED, misc. LED, open-shell LED, HFLD
   Martin Brehm           : Molecular dynamics
   Dmytro Bykov           : SCF Hessian
   Vijay G. Chilkuri      : MRCI spin determinant printing, contributions to CSF-ICE
   Dipayan Datta          : RHF DLPNO-CCSD density
   Achintya Kumar Dutta   : EOM-CC, STEOM-CC
   Dmitry Ganyushin       : Spin-Orbit,Spin-Spin,Magnetic field MRCI
   Miquel Garcia          : C-PCM and meta-GGA Hessian, CC/C-PCM, Gaussian charge scheme
   Yang Guo               : DLPNO-NEVPT2, F12-NEVPT2, CIM, IAO-localization
   Andreas Hansen         : Spin unrestricted coupled pair/coupled cluster methods
   Benjamin Helmich-Paris : MC-RPA, TRAH-SCF, COSX integrals
   Lee Huntington         : MR-EOM, pCC
   Robert Izsak           : Overlap fitted RIJCOSX, COSX-SCS-MP3, EOM
   Marcus Kettner         : VPT2
   Christian Kollmar      : KDIIS, OOCD, Brueckner-CCSD(T), CCSD density, CASPT2, CASPT2-K
   Simone Kossmann        : Meta GGA functionals, TD-DFT gradient, OOMP2, MP2 Hessian
   Martin Krupicka        : Initial AUTO-CI
   Lucas Lang             : DCDCAS
   Marvin Lechner         : AUTO-CI (C++ implementation), FIC-MRCC
   Dagmar Lenk            : GEPOL surface, SMD
   Dimitrios Liakos       : Extrapolation schemes; Compound Job, initial MDCI parallelization
   Dimitrios Manganas     : Further ROCIS development; embedding schemes
   Dimitrios Pantazis     : SARC Basis sets
   Anastasios Papadopoulos: AUTO-CI, single reference methods and gradients
   Taras Petrenko         : DFT Hessian,TD-DFT gradient, ASA, ECA, R-Raman, ABS, FL, XAS/XES, NRVS
   Peter Pinski           : DLPNO-MP2, DLPNO-MP2 Gradient
   Christoph Reimann      : Effective Core Potentials
   Marius Retegan         : Local ZFS, SOC
   Christoph Riplinger    : Optimizer, TS searches, QM/MM, DLPNO-CCSD(T), (RO)-DLPNO pert. Triples
   Tobias Risthaus        : Range-separated hybrids, TD-DFT gradient, RPA, STAB
   Michael Roemelt        : Original ROCIS implementation
   Masaaki Saitow         : Open-shell DLPNO-CCSD energy and density
   Barbara Sandhoefer     : DKH picture change effects
   Avijit Sen             : IP-ROCIS
   Kantharuban Sivalingam : CASSCF convergence, NEVPT2, FIC-MRCI
   Bernardo de Souza      : ESD, SOC TD-DFT
   Georgi Stoychev        : AutoAux, RI-MP2 NMR, DLPNO-MP2 response
   Willem Van den Heuvel  : Paramagnetic NMR
   Boris Wezisla          : Elementary symmetry handling
   Frank Wennmohs         : Technical directorship


 We gratefully acknowledge several colleagues who have allowed us to
 interface, adapt or use parts of their codes:
   Stefan Grimme, W. Hujo, H. Kruse, P. Pracht,  : VdW corrections, initial TS optimization,
                  C. Bannwarth, S. Ehlert          DFT functionals, gCP, sTDA/sTD-DF
   Ed Valeev, F. Pavosevic, A. Kumar             : LibInt (2-el integral package), F12 methods
   Garnet Chan, S. Sharma, J. Yang, R. Olivares  : DMRG
   Ulf Ekstrom                                   : XCFun DFT Library
   Mihaly Kallay                                 : mrcc  (arbitrary order and MRCC methods)
   Jiri Pittner, Ondrej Demel                    : Mk-CCSD
   Frank Weinhold                                : gennbo (NPA and NBO analysis)
   Christopher J. Cramer and Donald G. Truhlar   : smd solvation model
   Lars Goerigk                                  : TD-DFT with DH, B97 family of functionals
   V. Asgeirsson, H. Jonsson                     : NEB implementation
   FAccTs GmbH                                   : IRC, NEB, NEB-TS, DLPNO-Multilevel, CI-OPT
                                                   MM, QMMM, 2- and 3-layer-ONIOM, Crystal-QMMM,
                                                   LR-CPCM, SF, NACMEs, symmetry and pop. for TD-DFT,
                                                   nearIR, NL-DFT gradient (VV10), updates on ESD,
                                                   ML-optimized integration grids
   S Lehtola, MJT Oliveira, MAL Marques          : LibXC Library
   Liviu Ungur et al                             : ANISO software


 Your calculation uses the libint2 library for the computation of 2-el integrals
 For citations please refer to: http://libint.valeyev.net

 Your ORCA version has been built with support for libXC version: 5.1.0
 For citations please refer to: https://tddft.org/programs/libxc/

 This ORCA versions uses:
   CBLAS   interface :  Fast vector & matrix operations
   LAPACKE interface :  Fast linear algebra routines
   Shared memory     :  Shared parallel matrices


SCAN-COORDS
================================================================================

----- Orbital basis set information -----
Your calculation utilizes the basis: def2-SVP
   F. Weigend and R. Ahlrichs, Phys. Chem. Chem. Phys. 7, 3297 (2005).

----- AuxJ basis set information -----
Your calculation utilizes the auxiliary basis: def2/J
   F. Weigend, Phys. Chem. Chem. Phys. 8, 1057 (2006).

================================================================================
                                        WARNINGS
                       Please study these warnings very carefully!
================================================================================


WARNING: The environment variable RSH_COMMAND is not set!
  ===> : All Displacements for the Numerical Hessian or Gradient calculation
         will be started on localhost

WARNING: Geometry Optimization
  ===> : Switching off AutoStart
         For restart on a previous wavefunction, please use MOREAD

INFO   : the flag for use of the SHARK integral package has been found!

================================================================================
                                       INPUT FILE
================================================================================
NAME = CoOOH_Solv_COMPLETE.inp
|  1> ! PAL5 VWN
|  2> %method
|  3>         method DFT
|  4>         runtyp OPT
|  5> end
|  6> 
|  7> %cpcm
|  8>        epsilon 80.4
|  9>        refrac 1.33
| 10>        fepstype cosmo
| 11> end
| 12> %scf                  
| 13>        MaxIter 500
| 14> end
| 15> %geom                  
| 16>        MaxIter 500
| 17>        Convergence loose                                                  
| 18> end
| 19> 
| 20> %basis
| 21>         basis "def2-SVP"
| 22> end
| 23> ! NumFreq
| 24> %elprop
| 25>         Polar 1
| 26> end
| 27> %output
| 28>         XYZFile true
| 29> end
| 30> %coords
| 31>         CTyp xyz
| 32>         Charge 0
| 33>         Mult 1
| 34>         Units Angs
| 35>         coords
| 36> 	Co    -1.671960    2.457770   -0.000000
| 37> 	O     -3.066310    1.598560   -0.000001
| 38> 	O     -0.110402    3.419370    0.000000
| 39> 	H      0.603334    2.732930    0.000000
| 40>         end
| 41> endd                         ****END OF INPUT****
================================================================================

                       *****************************
                       * Geometry Optimization Run *
                       *****************************

Geometry optimization settings:
Update method            Update   .... BFGS
Choice of coordinates    CoordSys .... Z-matrix Internals
Initial Hessian          InHess   .... Almoef's Model

Convergence Tolerances:
Energy Change            TolE     ....  3.0000e-05 Eh
Max. Gradient            TolMAXG  ....  2.0000e-03 Eh/bohr
RMS Gradient             TolRMSG  ....  5.0000e-04 Eh/bohr
Max. Displacement        TolMAXD  ....  1.0000e-02 bohr
RMS Displacement         TolRMSD  ....  7.0000e-03 bohr
Strict Convergence                ....  False
------------------------------------------------------------------------------
                        ORCA OPTIMIZATION COORDINATE SETUP
------------------------------------------------------------------------------

The optimization will be done in new redundant internal coordinates
Making redundant internal coordinates   ...  (new redundants) done
Evaluating the initial hessian          ...  (Almloef) done
Evaluating the coordinates              ...  done
Calculating the B-matrix                .... done
Calculating the G-matrix                .... done
Diagonalizing the G-matrix              .... done
The first mode is                       ....    0
The number of degrees of freedom        ....    6

    -----------------------------------------------------------------
                    Redundant Internal Coordinates


    -----------------------------------------------------------------
         Definition                    Initial Value    Approx d2E/dq
    -----------------------------------------------------------------
      1. B(O   1,Co  0)                  1.6378         2.278345   
      2. B(O   2,Co  0)                  1.8339         1.108686   
      3. B(H   3,O   2)                  0.9903         0.465249   
      4. L(O   1,Co  0,O   2,H   3, 2) 179.9999         0.785620   
      5. L(O   1,Co  0,O   2,H   3, 1) 179.9828         0.785620   
      6. A(Co  0,O   2,H   3)          104.4923         0.450987   
    -----------------------------------------------------------------

Number of atoms                         .... 4
Number of degrees of freedom            .... 6

         *************************************************************
         *                GEOMETRY OPTIMIZATION CYCLE   1            *
         *************************************************************
---------------------------------
CARTESIAN COORDINATES (ANGSTROEM)
---------------------------------
  Co    -1.671960    2.457770   -0.000000
  O     -3.066310    1.598560   -0.000001
  O     -0.110402    3.419370    0.000000
  H      0.603334    2.732930    0.000000

----------------------------
CARTESIAN COORDINATES (A.U.)
----------------------------
  NO LB      ZA    FRAG     MASS         X           Y           Z
   0 Co   27.0000    0    58.930   -3.159547    4.644512   -0.000000
   1 O     8.0000    0    15.999   -5.794486    3.020841   -0.000002
   2 O     8.0000    0    15.999   -0.208630    6.461673    0.000000
   3 H     1.0000    0     1.008    1.140136    5.164489    0.000000

--------------------------------
INTERNAL COORDINATES (ANGSTROEM)
--------------------------------
 Co     0   0   0     0.000000000000     0.00000000     0.00000000
 O      1   0   0     1.637819815059     0.00000000     0.00000000
 O      1   2   0     1.833886023548   179.98284525     0.00000000
 H      3   1   2     0.990262061929   104.49225786   359.88315907

---------------------------
INTERNAL COORDINATES (A.U.)
---------------------------
 Co     0   0   0     0.000000000000     0.00000000     0.00000000
 O      1   0   0     3.095030907172     0.00000000     0.00000000
 O      1   2   0     3.465542345331   179.98284525     0.00000000
 H      3   1   2     1.871324097858   104.49225786   359.88315907

---------------------
BASIS SET INFORMATION
---------------------
There are 3 groups of distinct atoms

 Group   1 Type Co  : 14s9p5d1f contracted to 5s3p2d1f pattern {63311/531/41/1}
 Group   2 Type O   : 7s4p1d contracted to 3s2p1d pattern {511/31/1}
 Group   3 Type H   : 4s1p contracted to 2s1p pattern {31/1}

Atom   0Co   basis set group =>   1
Atom   1O    basis set group =>   2
Atom   2O    basis set group =>   2
Atom   3H    basis set group =>   3
---------------------------------
AUXILIARY/J BASIS SET INFORMATION
---------------------------------
There are 3 groups of distinct atoms

 Group   1 Type Co  : 19s5p5d3f3g contracted to 8s5p5d2f3g pattern {121111111/11111/11111/21/111}
 Group   2 Type O   : 12s5p4d2f1g contracted to 6s4p3d1f1g pattern {711111/2111/211/2/1}
 Group   3 Type H   : 5s2p1d contracted to 3s1p1d pattern {311/2/1}

Atom   0Co   basis set group =>   1
Atom   1O    basis set group =>   2
Atom   2O    basis set group =>   2
Atom   3H    basis set group =>   3


           ************************************************************
           *        Program running with 5 parallel MPI-processes     *
           *              working on a common directory               *
           ************************************************************
------------------------------------------------------------------------------
                           ORCA GTO INTEGRAL CALCULATION
                           -- RI-GTO INTEGRALS CHOSEN --
------------------------------------------------------------------------------
------------------------------------------------------------------------------
                   ___                                                        
                  /   \      - P O W E R E D   B Y -                         
                 /     \                                                     
                 |  |  |   _    _      __       _____    __    __             
                 |  |  |  | |  | |    /  \     |  _  \  |  |  /  |          
                  \  \/   | |  | |   /    \    | | | |  |  | /  /          
                 / \  \   | |__| |  /  /\  \   | |_| |  |  |/  /          
                |  |  |   |  __  | /  /__\  \  |    /   |      \           
                |  |  |   | |  | | |   __   |  |    \   |  |\   \          
                \     /   | |  | | |  |  |  |  | |\  \  |  | \   \       
                 \___/    |_|  |_| |__|  |__|  |_| \__\ |__|  \__/        
                                                                              
                      - O R C A' S   B I G   F R I E N D -                    
                                      &                                       
                       - I N T E G R A L  F E E D E R -                       
                                                                              
 v1 FN, 2020, v2 2021                                                         
------------------------------------------------------------------------------


Reading SHARK input file CoOOH_Solv_COMPLETE.SHARKINP.tmp ... ok
----------------------
SHARK INTEGRAL PACKAGE
----------------------

Number of atoms                             ...      4
Number of basis functions                   ...     64
Number of shells                            ...     26
Maximum angular momentum                    ...      3
Integral batch strategy                     ... SHARK/LIBINT Hybrid
RI-J (if used) integral strategy            ... SPLIT-RIJ (Revised 2003 algorithm where possible)
Printlevel                                  ...      1
Contraction scheme used                     ... SEGMENTED contraction
Coulomb Range Separation                    ... NOT USED
Exchange Range Separation                   ... NOT USED
Finite Nucleus Model                        ... NOT USED
Auxiliary Coulomb fitting basis             ... AVAILABLE
   # of basis functions in Aux-J            ...    198
   # of shells in Aux-J                     ...     58
   Maximum angular momentum in Aux-J        ...      4
Auxiliary J/K fitting basis                 ... NOT available
Auxiliary Correlation fitting basis         ... NOT available
Auxiliary 'external' fitting basis          ... NOT available
Integral threshold                          ...     2.500000e-11
Primitive cut-off                           ...     2.500000e-12
Primitive pair pre-selection threshold      ...     2.500000e-12

Calculating pre-screening integrals         ... done (  0.0 sec) Dimension = 26
Organizing shell pair data                  ... done (  0.0 sec)
Shell pair information
Total number of shell pairs                 ...       351
Shell pairs after pre-screening             ...       337
Total number of primitive shell pairs       ...      1780
Primitive shell pairs kept                  ...      1375
          la=0 lb=0:     84 shell pairs
          la=1 lb=0:     99 shell pairs
          la=1 lb=1:     36 shell pairs
          la=2 lb=0:     50 shell pairs
          la=2 lb=1:     32 shell pairs
          la=2 lb=2:     10 shell pairs
          la=3 lb=0:     13 shell pairs
          la=3 lb=1:      8 shell pairs
          la=3 lb=2:      4 shell pairs
          la=3 lb=3:      1 shell pairs

Calculating one electron integrals          ... done (  0.0 sec)
Calculating RI/J V-Matrix + Cholesky decomp.... done (  0.0 sec)
Calculating Nuclear repulsion               ... done (  0.0 sec) ENN=    153.483771496563 Eh

SHARK setup successfully completed in   0.1 seconds

Maximum memory used throughout the entire GTOINT-calculation: 14.1 MB


           ************************************************************
           *        Program running with 5 parallel MPI-processes     *
           *              working on a common directory               *
           ************************************************************
-------------------------------------------------------------------------------
                                 ORCA SCF
-------------------------------------------------------------------------------

------------
SCF SETTINGS
------------
Hamiltonian:
 Density Functional     Method          .... DFT(GTOs)
 Exchange Functional    Exchange        .... Slater
   X-Alpha parameter    XAlpha          ....  0.666667
 Correlation Functional Correlation     .... VWN-5
 Gradients option       PostSCFGGA      .... off
   Density functional embedding theory  .... OFF
 RI-approximation to the Coulomb term is turned on
   Number of AuxJ basis functions       .... 198


General Settings:
 Integral files         IntName         .... CoOOH_Solv_COMPLETE
 Hartree-Fock type      HFTyp           .... RHF
 Total Charge           Charge          ....    0
 Multiplicity           Mult            ....    1
 Number of Electrons    NEL             ....   44
 Basis Dimension        Dim             ....   64
 Nuclear Repulsion      ENuc            ....    153.4837714966 Eh

Convergence Acceleration:
 DIIS                   CNVDIIS         .... on
   Start iteration      DIISMaxIt       ....    12
   Startup error        DIISStart       ....  0.200000
   # of expansion vecs  DIISMaxEq       ....     5
   Bias factor          DIISBfac        ....   1.050
   Max. coefficient     DIISMaxC        ....  10.000
 Trust-Rad. Augm. Hess. CNVTRAH         .... auto
   Auto Start mean grad. ratio tolernc. ....  1.125000
   Auto Start start iteration           ....    20
   Auto Start num. interpolation iter.  ....    10
   Max. Number of Micro iterations      ....    16
   Max. Number of Macro iterations      .... Maxiter - #DIIS iter
   Number of Davidson start vectors     ....     2
   Converg. threshold I  (grad. norm)   ....   1.000e-05
   Converg. threshold II (energy diff.) ....   1.000e-08
   Grad. Scal. Fac. for Micro threshold ....   0.100
   Minimum threshold for Micro iter.    ....   0.010
   NR start threshold (gradient norm)   ....   0.001
   Initial trust radius                 ....   0.400
   Minimum AH scaling param. (alpha)    ....   1.000
   Maximum AH scaling param. (alpha)    .... 1000.000
   Orbital update algorithm             .... Taylor
   White noise on init. David. guess    .... on
   Maximum white noise                  ....   0.010
   Quad. conv. algorithm                .... NR
 SOSCF                  CNVSOSCF        .... off
 Level Shifting         CNVShift        .... on
   Level shift para.    LevelShift      ....    0.2500
   Turn off err/grad.   ShiftErr        ....    0.0010
 Zerner damping         CNVZerner       .... off
 Static damping         CNVDamp         .... on
   Fraction old density DampFac         ....    0.7000
   Max. Damping (<1)    DampMax         ....    0.9800
   Min. Damping (>=0)   DampMin         ....    0.0000
   Turn off err/grad.   DampErr         ....    0.1000
 Fernandez-Rico         CNVRico         .... off

SCF Procedure:
 Maximum # iterations   MaxIter         ....   500
 SCF integral mode      SCFMode         .... Direct
   Integral package                     .... SHARK and LIBINT hybrid scheme
 Reset frequency        DirectResetFreq ....    20
 Integral Threshold     Thresh          ....  2.500e-11 Eh
 Primitive CutOff       TCut            ....  2.500e-12 Eh

Convergence Tolerance:
 Convergence Check Mode ConvCheckMode   .... Total+1el-Energy
 Convergence forced     ConvForced      .... 0
 Energy Change          TolE            ....  1.000e-08 Eh
 1-El. energy change                    ....  1.000e-05 Eh
 DIIS Error             TolErr          ....  5.000e-07


Diagonalization of the overlap matrix:
Smallest eigenvalue                        ... 2.388e-02
Time for diagonalization                   ...    0.000 sec
Threshold for overlap eigenvalues          ... 1.000e-08
Number of eigenvalues below threshold      ... 0
Time for construction of square roots      ...    0.004 sec
Total time needed                          ...    0.005 sec

Time for model grid setup =    0.034 sec

------------------------------
INITIAL GUESS: MODEL POTENTIAL
------------------------------
Loading Hartree-Fock densities                     ... done
Calculating cut-offs                               ... done
Initializing the effective Hamiltonian             ... done
Setting up the integral package (SHARK)            ... done
Starting the Coulomb interaction                   ... done (   0.0 sec)
Reading the grid                                   ... done
Mapping shells                                     ... done
Starting the XC term evaluation                    ... done (   0.0 sec)
  promolecular density results
     # of electrons  =     44.000409724
     EX              =    -69.338073704
     EC              =     -3.492746802
     EX+EC           =    -72.830820506
Transforming the Hamiltonian                       ... done (   0.0 sec)
Diagonalizing the Hamiltonian                      ... done (   0.0 sec)
Back transforming the eigenvectors                 ... done (   0.0 sec)
Now organizing SCF variables                       ... done
                      ------------------
                      INITIAL GUESS DONE (   0.1 sec)
                      ------------------
-------------------
DFT GRID GENERATION
-------------------

General Integration Accuracy     IntAcc      ... 4.388
Radial Grid Type                 RadialGrid  ... OptM3 with GC (2021)
Angular Grid (max. ang.)         AngularGrid ... 4 (Lebedev-302)
Angular grid pruning method      GridPruning ... 4 (adaptive)
Weight generation scheme         WeightScheme... Becke
Basis function cutoff            BFCut       ... 1.0000e-11
Integration weight cutoff        WCut        ... 1.0000e-14
Angular grids for H and He will be reduced by one unit
Partially contracted basis set               ... off
Rotationally invariant grid construction     ... off

Total number of grid points                  ...    26847
Total number of batches                      ...      421
Average number of points per batch           ...       63
Average number of grid points per atom       ...     6712
Time for grid setup =    0.110 sec


--------------------
CPCM SOLVATION MODEL
--------------------
CPCM parameters:
  Epsilon                                         ...      80.4000
  Refrac                                          ...       1.3300
  Rsolv                                           ...       1.3000
  Surface type                                    ... GAUSSIAN VDW
  Epsilon function type                           ...        COSMO
Radii:
 Radius for Co used is    4.5353 Bohr (=   2.4000 Ang.)
 Radius for O  used is    3.4469 Bohr (=   1.8240 Ang.)
 Radius for H  used is    2.4944 Bohr (=   1.3200 Ang.)
Calculating surface                               ...        done! (  0.0s)
GEPOL surface points                              ...          301
GEPOL Volume                                      ...     528.3016
GEPOL Surface-area                                ...     336.0793
Calculating surface distance matrix               ...        done! (  0.0s)
Performing Cholesky decomposition & store         ...        done! (  0.0s)
Overall time for CPCM initialization              ...                 0.0s
--------------
SCF ITERATIONS
--------------
ITER       Energy         Delta-E        Max-DP      RMS-DP      [F,P]     Damp
               ***  Starting incremental Fock matrix formation  ***
  0  -1529.4255488416   0.000000000000 0.25985015  0.01218793  0.4176474 0.7000
  1  -1529.5531111550  -0.127562313404 0.24639810  0.00693056  0.2378006 0.7000
                               ***Turning on DIIS***
  2  -1529.6722691316  -0.119157976543 0.58482808  0.01599685  0.0314255 0.0000
  3  -1529.6618005130   0.010468618640 0.01980966  0.00085955  0.3415091 0.7000
  4  -1529.6891420774  -0.027341564485 0.02333446  0.00109310  0.3185467 0.7000
  5  -1529.7182343714  -0.029092293941 0.02182152  0.00114058  0.2900581 0.7000
  6  -1529.7431603171  -0.024925945686 0.02016898  0.00112088  0.2611631 0.7000
  7  -1529.7632028045  -0.020042487422 0.04525885  0.00215467  0.2338976 0.7000
  8  -1529.8105890010  -0.047386196478 0.02925196  0.00156666  0.1193391 0.7000
  9  -1529.8259569019  -0.015367900907 0.09928554  0.00419214  0.0534619 0.0000
 10  -1529.8345400573  -0.008583155391 0.02331203  0.00090960  0.0707868 0.0000
 11  -1529.8373716390  -0.002831581713 0.01989360  0.00068677  0.0491420 0.0000
 12  -1529.8389273421  -0.001555703079 0.01683746  0.00060159  0.0288277 0.0000
 13  -1529.8396974848  -0.000770142736 0.01491298  0.00053815  0.0197505 0.0000
 14  -1529.8402219020  -0.000524417223 0.01260598  0.00049902  0.0070033 0.0000
 15  -1529.8405248382  -0.000302936229 0.01280136  0.00044622  0.0038708 0.0000
 16  -1529.8407489284  -0.000224090109 0.01213778  0.00040856  0.0036978 0.0000
 17  -1529.8409472234  -0.000198295038 0.01012124  0.00032795  0.0034818 0.0000
 18  -1529.8410986889  -0.000151465536 0.00975391  0.00032682  0.0033331 0.0000
 19  -1529.8412288613  -0.000130172344 0.01035011  0.00034585  0.0031794 0.0000
               *** Restarting incremental Fock matrix formation ***
                                   *** Resetting DIIS ***
 20  -1529.8413695464  -0.000140685098 0.00946448  0.00031624  0.0029910 0.0000
 21  -1529.8414679798  -0.000098433431 0.00914365  0.00031339  0.0048752 0.0000
 22  -1529.8415955961  -0.000127616273 0.00863996  0.00029804  0.0026507 0.0000

 WARNING: the maximum gradient error descreased on average only by a factor   1.1
          during the last 20 iterations

                      *** Initiating the TRAH-SCF procedure ***


TRAH GRID
---------

General Integration Accuracy     IntAcc      ... 3.467
Radial Grid Type                 RadialGrid  ... OptM3 with GC (2021)
Angular Grid (max. ang.)         AngularGrid ... 1 (Lebedev-50)
Angular grid pruning method      GridPruning ... 4 (adaptive)
Weight generation scheme         WeightScheme... Becke
Basis function cutoff            BFCut       ... 1.0000e-11
Integration weight cutoff        WCut        ... 1.0000e-14
Angular grids for H and He will be reduced by one unit
Partially contracted basis set               ... off
Rotationally invariant grid construction     ... off

Total number of grid points                  ...     6683
Total number of batches                      ...      106
Average number of points per batch           ...       63
Average number of grid points per atom       ...     1671

 --------------------------------------------------------------------------------------------
   Iter.        energy            ||Error||_2        Shift      TRadius  Mac/Mic        Rej.
 --------------------------------------------------------------------------------------------
WARNING: 3 diagonal Hessian elements are negative!
    0      -1529.841695714513     1.113682e-02                     0.400 (TRAH MAcro)   No
WARNING : negative HOMO - LUMO gap : -0.008949
    0     dE    -1.260638e-05     3.679371e-02    -2.5213e-05      0.002 (TRAH MIcro)
    0     dE    -3.317425e-05     6.667099e-02    -6.6335e-05      0.014 (TRAH MIcro)
    0     dE    -2.372641e-04     8.271603e-02    -4.7315e-04      0.054 (TRAH MIcro)
    0     dE    -6.318430e-04     6.410329e-02    -1.2400e-03      0.138 (TRAH MIcro)
    0     dE    -6.877756e-04     6.089972e-02    -1.3458e-03      0.149 (TRAH MIcro)
    0     dE    -7.825121e-04     3.971231e-02    -1.5225e-03      0.167 (TRAH MIcro)
    0     dE    -8.089924e-04     3.069423e-02    -1.5715e-03      0.172 (TRAH MIcro)
    0     dE    -8.136973e-04     2.899380e-02    -1.5802e-03      0.173 (TRAH MIcro)
    0     dE    -8.230120e-04     2.109510e-02    -1.5978e-03      0.174 (TRAH MIcro)
    0     dE    -8.369256e-04     3.765927e-03    -1.6236e-03      0.176 (TRAH MIcro)
    0     dE    -8.373755e-04     1.181153e-03    -1.6245e-03      0.176 (TRAH MIcro)
    0     dE    -8.374591e-04     2.505138e-04    -1.6246e-03      0.176 (TRAH MIcro)
WARNING: 3 diagonal Hessian elements are negative!
    1      -1529.842528267965     2.575986e-02                     0.480 (TRAH MAcro)   No
WARNING : negative HOMO - LUMO gap : -0.008190
    1     dE    -2.429558e-05     1.433201e-02    -4.8591e-05      0.002 (TRAH MIcro)
    1     dE    -3.084838e-05     1.261946e-02    -6.1696e-05      0.004 (TRAH MIcro)
    1     dE    -3.364526e-05     4.616329e-03    -6.7290e-05      0.004 (TRAH MIcro)
    1     dE    -3.422610e-05     7.331262e-03    -6.8451e-05      0.004 (TRAH MIcro)
    1     dE    -3.535006e-05     5.040786e-03    -7.0698e-05      0.005 (TRAH MIcro)
    1     dE    -3.744617e-05     3.924264e-03    -7.4885e-05      0.010 (TRAH MIcro)
    1     dE    -3.890720e-05     4.665755e-03    -7.7801e-05      0.013 (TRAH MIcro)
    1     dE    -3.996464e-05     4.276442e-03    -7.9909e-05      0.016 (TRAH MIcro)
    1     dE    -4.012776e-05     4.491545e-03    -8.0234e-05      0.016 (TRAH MIcro)
    1     dE    -4.036407e-05     3.757581e-03    -8.0706e-05      0.017 (TRAH MIcro)
    1     dE    -4.066501e-05     2.199968e-03    -8.1306e-05      0.017 (TRAH MIcro)
WARNING: 3 diagonal Hessian elements are negative!
    2      -1529.842569882580     2.216307e-03                     0.576 (TRAH MAcro)   No
WARNING : negative HOMO - LUMO gap : -0.010023
    2     dE    -3.765761e-09     1.798296e-03    -7.9978e-09      0.000 (TRAH MIcro)
    2     dE    -9.820416e-08     1.736992e-03    -1.9641e-07      0.001 (TRAH MIcro)
    2     dE    -1.606495e-07     8.169903e-04    -3.2130e-07      0.002 (TRAH MIcro)
    2     dE    -1.974158e-07     3.297042e-04    -3.9483e-07      0.002 (TRAH MIcro)
    2     dE    -2.057263e-07     4.182986e-04    -4.1145e-07      0.001 (TRAH MIcro)
    2     dE    -2.314566e-07     6.710739e-04    -4.6291e-07      0.002 (TRAH MIcro)
    2     dE    -3.098306e-07     1.157870e-03    -6.1966e-07      0.002 (TRAH MIcro)
    2     dE    -3.558726e-07     1.287893e-03    -7.1174e-07      0.003 (TRAH MIcro)
    2     dE    -4.153402e-07     3.478671e-04    -8.3067e-07      0.004 (TRAH MIcro)
    2     dE    -4.216368e-07     1.626453e-04    -8.4326e-07      0.004 (TRAH MIcro)
WARNING: 3 diagonal Hessian elements are negative!
    3      -1529.842570305638     1.666365e-04                           (NR   MAcro)
WARNING : negative HOMO - LUMO gap : -0.010044
    3     dE    -6.981723e-10     8.609406e-05                           (NR   MIcro)
    3     dE    -8.825125e-10     5.702994e-05                           (NR   MIcro)
    3     dE    -9.669235e-10     2.828639e-05                           (NR   MIcro)
    3     dE    -1.000742e-09     1.480167e-05                           (NR   MIcro)
    3     dE    -1.008444e-09     1.072719e-05                           (NR   MIcro)
    3     dE    -1.024514e-09     1.331014e-05                           (NR   MIcro)
    3     dE    -1.037953e-09     2.325451e-05                           (NR   MIcro)
    3     dE    -1.101275e-09     2.258816e-05                           (NR   MIcro)
    3     dE    -1.127343e-09     1.308307e-05                           (NR   MIcro)
    3     dE    -1.133036e-09     1.625480e-06                           (NR   MIcro)
    3     dE    -1.134461e-09     4.720838e-06                           (NR   MIcro)
    3     dE    -1.138980e-09     3.872943e-06                           (NR   MIcro)
    3     dE    -1.139606e-09     6.604540e-07                           (NR   MIcro)
WARNING: 3 diagonal Hessian elements are negative!
    4      -1529.842570306778     7.092406e-07                           (NR   MAcro)
WARNING : negative HOMO - LUMO gap : -0.010045

               *****************************************************
               *                     SUCCESS                       *
               *           SCF CONVERGED AFTER  74 CYCLES          *
               *****************************************************


----------------
TOTAL SCF ENERGY
----------------

Total Energy       :        -1529.84257031 Eh          -41629.13272 eV

Components:
Nuclear Repulsion  :          153.48377150 Eh            4176.50575 eV
Electronic Energy  :        -1683.32634180 Eh          -45805.63847 eV
One Electron Energy:        -2427.97102753 Eh          -66068.45051 eV
Two Electron Energy:          744.64468572 Eh           20262.81204 eV
CPCM Dielectric    :           -0.00900857 Eh              -0.24514 eV

Virial components:
Potential Energy   :        -3058.76519310 Eh          -83233.23240 eV
Kinetic Energy     :         1528.92262280 Eh           41604.09968 eV
Virial Ratio       :            2.00060170


DFT components:
N(Alpha)           :       21.999986904373 electrons
N(Beta)            :       21.999986904373 electrons
N(Total)           :       43.999973808747 electrons
E(X)               :      -69.498240720583 Eh       
E(C)               :       -3.511651845908 Eh       
E(XC)              :      -73.009892566491 Eh       
DFET-embed. en.    :        0.000000000000 Eh       
CPCM Solvation Model Properties:
Surface-charge          :           -0.00589198
Charge-correction       :            0.00006887 Eh               0.00187 eV
Free-energy (cav+disp)  :  This term is not implemented in the current solvation scheme

---------------
SCF CONVERGENCE
---------------

  Last Energy change         ...   -1.1391e-09  Tolerance :   1.0000e-08
  Last Orbital Gradient      ...    7.0924e-07  Tolerance :   1.0000e-05
  Last Orbital Rotation      ...    8.4398e-05

             **** THE GBW FILE WAS UPDATED (CoOOH_Solv_COMPLETE.gbw) ****
             **** DENSITY CoOOH_Solv_COMPLETE.scfp WAS UPDATED ****
             **** ENERGY FILE WAS UPDATED (CoOOH_Solv_COMPLETE.en.tmp) ****
             **** THE GBW FILE WAS UPDATED (CoOOH_Solv_COMPLETE.gbw) ****
             **** DENSITY CoOOH_Solv_COMPLETE.scfp WAS UPDATED ****
----------------
ORBITAL ENERGIES
----------------

  NO   OCC          E(Eh)            E(eV) 
   0   2.0000    -275.544784     -7497.9548 
   1   2.0000     -32.343229      -880.1040 
   2   2.0000     -28.159225      -766.2515 
   3   2.0000     -28.117521      -765.1167 
   4   2.0000     -28.115564      -765.0634 
   5   2.0000     -18.668272      -507.9895 
   6   2.0000     -18.641053      -507.2489 
   7   2.0000      -3.574790       -97.2750 
   8   2.0000      -2.368615       -64.4533 
   9   2.0000      -2.287199       -62.2379 
  10   2.0000      -2.282829       -62.1189 
  11   2.0000      -0.875906       -23.8346 
  12   2.0000      -0.828679       -22.5495 
  13   2.0000      -0.436857       -11.8875 
  14   2.0000      -0.371549       -10.1104 
  15   2.0000      -0.345961        -9.4141 
  16   2.0000      -0.339246        -9.2314 
  17   2.0000      -0.301128        -8.1941 
  18   2.0000      -0.294538        -8.0148 
  19   2.0000      -0.215194        -5.8557 
  20   2.0000      -0.210443        -5.7264 
  21   2.0000      -0.210006        -5.7146 
  22   0.0000      -0.220052        -5.9879 
  23   0.0000      -0.206352        -5.6151 
  24   0.0000      -0.022240        -0.6052 
  25   0.0000       0.061083         1.6621 
  26   0.0000       0.078268         2.1298 
  27   0.0000       0.088916         2.4195 
  28   0.0000       0.140792         3.8312 
  29   0.0000       0.312738         8.5100 
  30   0.0000       0.554972        15.1016 
  31   0.0000       0.792999        21.5786 
  32   0.0000       0.796146        21.6642 
  33   0.0000       0.833937        22.6926 
  34   0.0000       0.897546        24.4235 
  35   0.0000       0.907515        24.6947 
  36   0.0000       0.938655        25.5421 
  37   0.0000       1.004544        27.3350 
  38   0.0000       1.008218        27.4350 
  39   0.0000       1.060480        28.8571 
  40   0.0000       1.102039        29.9880 
  41   0.0000       1.176411        32.0118 
  42   0.0000       1.377857        37.4934 
  43   0.0000       1.382815        37.6283 
  44   0.0000       1.434918        39.0461 
  45   0.0000       1.605484        43.6875 
  46   0.0000       2.077005        56.5182 
  47   0.0000       2.494615        67.8819 
  48   0.0000       2.501664        68.0737 
  49   0.0000       2.502015        68.0833 
  50   0.0000       2.514688        68.4281 
  51   0.0000       2.611398        71.0598 
  52   0.0000       2.698803        73.4381 
  53   0.0000       2.827388        76.9371 
  54   0.0000       2.852404        77.6178 
  55   0.0000       3.035672        82.6048 
  56   0.0000       3.557763        96.8117 
  57   0.0000       4.694014       127.7306 
  58   0.0000       4.694105       127.7331 
  59   0.0000       4.704842       128.0253 
  60   0.0000       4.706500       128.0704 
  61   0.0000       4.746556       129.1604 
  62   0.0000       4.746563       129.1605 
  63   0.0000       4.813198       130.9738 

                    ********************************
                    * MULLIKEN POPULATION ANALYSIS *
                    ********************************

-----------------------
MULLIKEN ATOMIC CHARGES
-----------------------
   0 Co:    0.510363
   1 O :   -0.366317
   2 O :   -0.419358
   3 H :    0.275311
Sum of atomic charges:   -0.0000000

--------------------------------
MULLIKEN REDUCED ORBITAL CHARGES
--------------------------------
  0 Cos       :     6.823817  s :     6.823817
      pz      :     4.119324  p :    12.324119
      px      :     4.115786
      py      :     4.089008
      dz2     :     1.921695  d :     7.340230
      dxz     :     1.212033
      dyz     :     1.649778
      dx2y2   :     0.898057
      dxy     :     1.658666
      f0      :     0.000117  f :     0.001472
      f+1     :     0.000256
      f-1     :     0.000106
      f+2     :     0.000038
      f-2     :     0.000148
      f+3     :     0.000237
      f-3     :     0.000570
  1 O s       :     3.927924  s :     3.927924
      pz      :     1.395755  p :     4.430828
      px      :     1.648867
      py      :     1.386206
      dz2     :     0.000939  d :     0.007565
      dxz     :     0.001435
      dyz     :     0.000614
      dx2y2   :     0.002158
      dxy     :     0.002419
  2 O s       :     3.797034  s :     3.797034
      pz      :     1.606094  p :     4.615663
      px      :     1.467972
      py      :     1.541598
      dz2     :     0.001149  d :     0.006661
      dxz     :     0.000111
      dyz     :     0.000923
      dx2y2   :     0.001020
      dxy     :     0.003458
  3 H s       :     0.662466  s :     0.662466
      pz      :     0.013631  p :     0.062223
      px      :     0.023183
      py      :     0.025408


                     *******************************
                     * LOEWDIN POPULATION ANALYSIS *
                     *******************************

----------------------
LOEWDIN ATOMIC CHARGES
----------------------
   0 Co:    0.300510
   1 O :   -0.208409
   2 O :   -0.220707
   3 H :    0.128606

-------------------------------
LOEWDIN REDUCED ORBITAL CHARGES
-------------------------------
  0 Cos       :     6.738384  s :     6.738384
      pz      :     4.130420  p :    12.505595
      px      :     4.230306
      py      :     4.144869
      dz2     :     1.941936  d :     7.453391
      dxz     :     1.223260
      dyz     :     1.654435
      dx2y2   :     0.917289
      dxy     :     1.716471
      f0      :     0.000150  f :     0.002119
      f+1     :     0.000394
      f-1     :     0.000160
      f+2     :     0.000049
      f-2     :     0.000192
      f+3     :     0.000283
      f-3     :     0.000892
  1 O s       :     3.745253  s :     3.745253
      pz      :     1.378935  p :     4.452180
      px      :     1.685860
      py      :     1.387385
      dz2     :     0.001763  d :     0.010976
      dxz     :     0.001481
      dyz     :     0.000664
      dx2y2   :     0.002758
      dxy     :     0.004310
  2 O s       :     3.558598  s :     3.558598
      pz      :     1.572160  p :     4.651879
      px      :     1.508833
      py      :     1.570886
      dz2     :     0.002151  d :     0.010230
      dxz     :     0.000272
      dyz     :     0.000551
      dx2y2   :     0.000727
      dxy     :     0.006529
  3 H s       :     0.695321  s :     0.695321
      pz      :     0.037431  p :     0.176073
      px      :     0.067477
      py      :     0.071165


                      *****************************
                      * MAYER POPULATION ANALYSIS *
                      *****************************

  NA   - Mulliken gross atomic population
  ZA   - Total nuclear charge
  QA   - Mulliken gross atomic charge
  VA   - Mayer's total valence
  BVA  - Mayer's bonded valence
  FA   - Mayer's free valence

  ATOM       NA         ZA         QA         VA         BVA        FA
  0 Co    26.4896    27.0000     0.5104     3.2949     3.2949    -0.0000
  1 O      8.3663     8.0000    -0.3663     2.3037     2.3037    -0.0000
  2 O      8.4194     8.0000    -0.4194     2.2812     2.2812    -0.0000
  3 H      0.7247     1.0000     0.2753     0.9387     0.9387    -0.0000

  Mayer bond orders larger than 0.100000
B(  0-Co,  1-O ) :   2.0914 B(  0-Co,  2-O ) :   1.1781 B(  1-O ,  2-O ) :   0.2010 
B(  2-O ,  3-H ) :   0.9021 

-------
TIMINGS
-------

Total SCF time: 0 days 0 hours 0 min 7 sec 

Total time                  ....       7.393 sec
Sum of individual times     ....       6.006 sec  ( 81.2%)

Fock matrix formation       ....       2.970 sec  ( 40.2%)
  Split-RI-J                ....       0.590 sec  ( 19.9% of F)
  XC integration            ....       0.728 sec  ( 24.5% of F)
    Basis function eval.    ....       0.090 sec  ( 12.4% of XC)
    Density eval.           ....       0.066 sec  (  9.1% of XC)
    XC-Functional eval.     ....       0.028 sec  (  3.8% of XC)
    XC-Potential eval.      ....       0.068 sec  (  9.3% of XC)
Diagonalization             ....       0.101 sec  (  1.4%)
Density matrix formation    ....       0.008 sec  (  0.1%)
Population analysis         ....       0.012 sec  (  0.2%)
Initial guess               ....       0.018 sec  (  0.2%)
Orbital Transformation      ....       0.057 sec  (  0.8%)
Orbital Orthonormalization  ....       0.000 sec  (  0.0%)
DIIS solution               ....       0.117 sec  (  1.6%)
Grid generation             ....       0.144 sec  (  1.9%)

Maximum memory used throughout the entire SCF-calculation: 9.5 MB

-------------------------   --------------------
FINAL SINGLE POINT ENERGY     -1529.842570306778
-------------------------   --------------------



           ************************************************************
           *        Program running with 5 parallel MPI-processes     *
           *              working on a common directory               *
           ************************************************************
------------------------------------------------------------------------------
                         ORCA SCF GRADIENT CALCULATION
------------------------------------------------------------------------------

Gradient of the Kohn-Sham DFT energy:
Kohn-Sham wavefunction type      ... RKS
Hartree-Fock exchange scaling    ...    0.000
Number of operators              ...    1
Number of atoms                  ...    4
Basis set dimensions             ...   64
Integral neglect threshold       ... 2.5e-11
Integral primitive cutoff        ... 2.5e-12
SHARK Integral package           ... ON

Nuc. rep. gradient       (SHARK) ... done (  0.0 sec)
HCore & Overlap gradient (SHARK) ... done (  0.0 sec)
RI-J gradient            (SHARK) ... done (  0.1 sec)
Exchange-correlation gradient    ... done

------------------
CARTESIAN GRADIENT
------------------

   1   Co  :    0.015302341   -0.007872950    0.000000049
   2   O   :   -0.061245259   -0.031192850   -0.000000053
   3   O   :    0.050694450    0.046160148   -0.000000001
   4   H   :   -0.004751532   -0.007094347    0.000000006

Difference to translation invariance:
           :    0.0000000000   -0.0000000001   -0.0000000000

Difference to rotation invariance:
           :    0.0000000280   -0.0000000446   -0.0011888577

Norm of the cartesian gradient     ...    0.0989631951
RMS gradient                       ...    0.0285682137
MAX gradient                       ...    0.0612452589

-------
TIMINGS
-------

Total SCF gradient time            ...        0.232 sec

One electron gradient       ....       0.004 sec  (  1.7%)
RI-J Coulomb gradient       ....       0.088 sec  ( 37.9%)
XC gradient                 ....       0.034 sec  ( 14.7%)
CPCM gradient               ....       0.034 sec  ( 14.7%)
   A-Matrix (El+Nuc)        ....       0.003 sec  (  1.3%)
   Potential                ....       0.031 sec  ( 13.4%)

Maximum memory used throughout the entire SCFGRAD-calculation: 6.8 MB
------------------------------------------------------------------------------
                         ORCA GEOMETRY RELAXATION STEP
------------------------------------------------------------------------------

Reading the OPT-File                    .... done
Getting information on internals        .... done
Copying old internal coords+grads       .... done
Making the new internal coordinates     .... (new redundants).... done
Validating the new internal coordinates .... (new redundants).... done
Calculating the B-matrix                .... done
Calculating the G,G- and P matrices     .... done
Transforming gradient to internals      .... done
Projecting the internal gradient        .... done
Number of atoms                         ....   4
Number of internal coordinates          ....   6
Current Energy                          .... -1529.842570307 Eh
Current gradient norm                   ....     0.098963195 Eh/bohr
Maximum allowed component of the step   ....  0.300
Current trust radius                    ....  0.300
Evaluating the initial hessian          ....  (Almloef) done
Projecting the Hessian                  .... done
Forming the augmented Hessian           .... done
Diagonalizing the augmented Hessian     .... done
Last element of RFO vector              ....  0.997317862
Lowest eigenvalues of augmented Hessian:
 -0.006138996  0.451515462  0.465253462  0.785620019  0.785973546
Length of the computed step             ....  0.073388933
The final length of the internal step   ....  0.073388933
Converting the step to cartesian space:
 Initial RMS(Int)=    0.0299609063
Transforming coordinates:
 Iter   0:  RMS(Cart)=    0.0191304100 RMS(Int)=    0.0299354141
 Iter   1:  RMS(Cart)=    0.0002237292 RMS(Int)=    0.0002833144
 Iter   2:  RMS(Cart)=    0.0000030454 RMS(Int)=    0.0000042231
 Iter   3:  RMS(Cart)=    0.0000000718 RMS(Int)=    0.0000001185
done
Storing new coordinates                 .... done

                                .--------------------.
          ----------------------|Geometry convergence|-------------------------
          Item                value                   Tolerance       Converged
          ---------------------------------------------------------------------
          RMS gradient        0.0382523877            0.0005000000      NO
          MAX gradient        0.0685202615            0.0020000000      NO
          RMS step            0.0299609063            0.0070000000      NO
          MAX step            0.0534931981            0.0100000000      NO
          ........................................................
          Max(Bonds)      0.0283      Max(Angles)    1.96
          Max(Dihed)        0.00      Max(Improp)    0.00
          ---------------------------------------------------------------------

The optimization has not yet converged - more geometry cycles are needed


    ---------------------------------------------------------------------------
                         Redundant Internal Coordinates
                            (Angstroem and degrees)

        Definition                    Value    dE/dq     Step     New-Value
    ----------------------------------------------------------------------------
     1. B(O   1,Co  0)                1.6378  0.068520 -0.0159    1.6219   
     2. B(O   2,Co  0)                1.8339  0.059636 -0.0283    1.8056   
     3. B(H   3,O   2)                0.9903  0.001410 -0.0016    0.9887   
     4. L(O   1,Co  0,O   2,H   3, 2) 180.00 -0.000000    0.00    180.00   
     5. L(O   1,Co  0,O   2,H   3, 1) 179.98  0.016811   -1.22    178.77   
     6. A(Co  0,O   2,H   3)          104.49 -0.015603    1.96    106.45   
    ----------------------------------------------------------------------------

         *************************************************************
         *                GEOMETRY OPTIMIZATION CYCLE   2            *
         *************************************************************
---------------------------------
CARTESIAN COORDINATES (ANGSTROEM)
---------------------------------
  Co    -1.674196    2.470104    0.000000
  O     -3.045449    1.603860   -0.000001
  O     -0.127286    3.401332   -0.000000
  H      0.601592    2.733333   -0.000000

----------------------------
CARTESIAN COORDINATES (A.U.)
----------------------------
  NO LB      ZA    FRAG     MASS         X           Y           Z
   0 Co   27.0000    0    58.930   -3.163771    4.667821    0.000000
   1 O     8.0000    0    15.999   -5.755064    3.030856   -0.000002
   2 O     8.0000    0    15.999   -0.240536    6.427586   -0.000000
   3 H     1.0000    0     1.008    1.136845    5.165252   -0.000000

--------------------------------
INTERNAL COORDINATES (ANGSTROEM)
--------------------------------
 Co     0   0   0     0.000000000000     0.00000000     0.00000000
 O      1   0   0     1.621947804827     0.00000000     0.00000000
 O      1   2   0     1.805578642230   178.76630888     0.00000000
 H      3   1   2     0.988678804747   106.44789490     0.00000000

---------------------------
INTERNAL COORDINATES (A.U.)
---------------------------
 Co     0   0   0     0.000000000000     0.00000000     0.00000000
 O      1   0   0     3.065037154638     0.00000000     0.00000000
 O      1   2   0     3.412049147072   178.76630888     0.00000000
 H      3   1   2     1.868332175384   106.44789490     0.00000000



           ************************************************************
           *        Program running with 5 parallel MPI-processes     *
           *              working on a common directory               *
           ************************************************************
------------------------------------------------------------------------------
                   ___                                                        
                  /   \      - P O W E R E D   B Y -                         
                 /     \                                                     
                 |  |  |   _    _      __       _____    __    __             
                 |  |  |  | |  | |    /  \     |  _  \  |  |  /  |          
                  \  \/   | |  | |   /    \    | | | |  |  | /  /          
                 / \  \   | |__| |  /  /\  \   | |_| |  |  |/  /          
                |  |  |   |  __  | /  /__\  \  |    /   |      \           
                |  |  |   | |  | | |   __   |  |    \   |  |\   \          
                \     /   | |  | | |  |  |  |  | |\  \  |  | \   \       
                 \___/    |_|  |_| |__|  |__|  |_| \__\ |__|  \__/        
                                                                              
                      - O R C A' S   B I G   F R I E N D -                    
                                      &                                       
                       - I N T E G R A L  F E E D E R -                       
                                                                              
 v1 FN, 2020, v2 2021                                                         
------------------------------------------------------------------------------


Reading SHARK input file CoOOH_Solv_COMPLETE.SHARKINP.tmp ... ok
----------------------
SHARK INTEGRAL PACKAGE
----------------------

Number of atoms                             ...      4
Number of basis functions                   ...     64
Number of shells                            ...     26
Maximum angular momentum                    ...      3
Integral batch strategy                     ... SHARK/LIBINT Hybrid
RI-J (if used) integral strategy            ... SPLIT-RIJ (Revised 2003 algorithm where possible)
Printlevel                                  ...      1
Contraction scheme used                     ... SEGMENTED contraction
Coulomb Range Separation                    ... NOT USED
Exchange Range Separation                   ... NOT USED
Finite Nucleus Model                        ... NOT USED
Auxiliary Coulomb fitting basis             ... AVAILABLE
   # of basis functions in Aux-J            ...    198
   # of shells in Aux-J                     ...     58
   Maximum angular momentum in Aux-J        ...      4
Auxiliary J/K fitting basis                 ... NOT available
Auxiliary Correlation fitting basis         ... NOT available
Auxiliary 'external' fitting basis          ... NOT available
Integral threshold                          ...     2.500000e-11
Primitive cut-off                           ...     2.500000e-12
Primitive pair pre-selection threshold      ...     2.500000e-12

Calculating pre-screening integrals         ... done (  0.0 sec) Dimension = 26
Organizing shell pair data                  ... done (  0.0 sec)
Shell pair information
Total number of shell pairs                 ...       351
Shell pairs after pre-screening             ...       337
Total number of primitive shell pairs       ...      1780
Primitive shell pairs kept                  ...      1378
          la=0 lb=0:     84 shell pairs
          la=1 lb=0:     99 shell pairs
          la=1 lb=1:     36 shell pairs
          la=2 lb=0:     50 shell pairs
          la=2 lb=1:     32 shell pairs
          la=2 lb=2:     10 shell pairs
          la=3 lb=0:     13 shell pairs
          la=3 lb=1:      8 shell pairs
          la=3 lb=2:      4 shell pairs
          la=3 lb=3:      1 shell pairs

Calculating one electron integrals          ... done (  0.0 sec)
Calculating RI/J V-Matrix + Cholesky decomp.... done (  0.0 sec)
Calculating Nuclear repulsion               ... done (  0.0 sec) ENN=    155.286163126824 Eh

SHARK setup successfully completed in   0.1 seconds

Maximum memory used throughout the entire GTOINT-calculation: 14.1 MB


           ************************************************************
           *        Program running with 5 parallel MPI-processes     *
           *              working on a common directory               *
           ************************************************************

Diagonalization of the overlap matrix:
Smallest eigenvalue                        ... 2.318e-02
Time for diagonalization                   ...    0.001 sec
Threshold for overlap eigenvalues          ... 1.000e-08
Number of eigenvalues below threshold      ... 0
Time for construction of square roots      ...    0.005 sec
Total time needed                          ...    0.006 sec

-------------------
DFT GRID GENERATION
-------------------

General Integration Accuracy     IntAcc      ... 4.388
Radial Grid Type                 RadialGrid  ... OptM3 with GC (2021)
Angular Grid (max. ang.)         AngularGrid ... 4 (Lebedev-302)
Angular grid pruning method      GridPruning ... 4 (adaptive)
Weight generation scheme         WeightScheme... Becke
Basis function cutoff            BFCut       ... 1.0000e-11
Integration weight cutoff        WCut        ... 1.0000e-14
Angular grids for H and He will be reduced by one unit
Partially contracted basis set               ... off
Rotationally invariant grid construction     ... off

Total number of grid points                  ...    26846
Total number of batches                      ...      421
Average number of points per batch           ...       63
Average number of grid points per atom       ...     6712
Time for grid setup =    0.113 sec


--------------------
CPCM SOLVATION MODEL
--------------------
CPCM parameters:
  Epsilon                                         ...      80.4000
  Refrac                                          ...       1.3300
  Rsolv                                           ...       1.3000
  Surface type                                    ... GAUSSIAN VDW
  Epsilon function type                           ...        COSMO
Radii:
 Radius for Co used is    4.5353 Bohr (=   2.4000 Ang.)
 Radius for O  used is    3.4469 Bohr (=   1.8240 Ang.)
 Radius for H  used is    2.4944 Bohr (=   1.3200 Ang.)
Calculating surface                               ...        done! (  0.0s)
GEPOL surface points                              ...          299
GEPOL Volume                                      ...     525.0547
GEPOL Surface-area                                ...     334.2685
Calculating surface distance matrix               ...        done! (  0.0s)
Performing Cholesky decomposition & store         ...        done! (  0.0s)
Overall time for CPCM initialization              ...                 0.0s
--------------
SCF ITERATIONS
--------------
ITER       Energy         Delta-E        Max-DP      RMS-DP      [F,P]     Damp
               ***  Starting incremental Fock matrix formation  ***
  0  -1529.8480636631   0.000000000000 0.00218236  0.00017273  0.0059388 0.7000
  1  -1529.8481607342  -0.000097071106 0.00209120  0.00016816  0.0038006 0.7000
                               ***Turning on DIIS***
  2  -1529.8482424308  -0.000081696677 0.00580619  0.00047997  0.0026524 0.0000
  3  -1529.8484375677  -0.000195136813 0.00382992  0.00015666  0.0025337 0.0000
  4  -1529.8483935574   0.000044010307 0.00137821  0.00007413  0.0072328 0.0000
  5  -1529.8484428344  -0.000049277045 0.00082026  0.00004868  0.0030168 0.0000
  6  -1529.8484554973  -0.000012662949 0.00067250  0.00003476  0.0010986 0.0000
  7  -1529.8484572193  -0.000001721921 1.16414912  0.03021124  0.0004991 0.0000
  8  -1529.5639939876   0.284463231650 0.00000406  0.00000016  0.3247527 0.7000
  9  -1529.5640004464  -0.000006458816 0.00000341  0.00000017  0.3247466 0.7000
 10  -1529.5640066744  -0.000006227936 0.00007891  0.00000346  0.3247405 0.7000
 11  -1529.5640372688  -0.000030594408 0.00022778  0.00000812  0.3246915 0.7000
 12  -1529.5640131875   0.000024081269 0.42435781  0.01128512  0.3247072 0.7000
 13  -1529.5713788953  -0.007365707789 0.24399661  0.00658784  0.2874155 0.7000
 14  -1529.3695432625   0.201835632773 0.16050496  0.00496778  0.4932659 0.7000
 15  -1529.3457807012   0.023762561278 0.13281806  0.00408457  0.5497975 0.7000
 16  -1529.4370092973  -0.091228596100 0.12018980  0.00335773  0.5132593 0.7000
 17  -1529.5508330804  -0.113823783081 0.12694126  0.00346318  0.4365476 0.7000
 18  -1529.6987018686  -0.147868788199 0.09755180  0.00387913  0.2779914 0.7000
 19  -1529.7921509167  -0.093449048029 0.06350595  0.00252128  0.1099618 0.7000
               *** Restarting incremental Fock matrix formation ***
                                   *** Resetting DIIS ***
 20  -1529.8133679544  -0.021217037782 0.15541755  0.00517170  0.0796711 0.0000
 21  -1529.8368314022  -0.023463447797 0.07504762  0.00290616  0.0865905 0.0000
 22  -1529.8349912860   0.001840116257 0.00845680  0.00037041  0.1028215 0.7000
 23  -1529.8382683528  -0.003277066862 0.02803722  0.00129816  0.0916372 0.0000
 24  -1529.8460554226  -0.007787069750 0.01161094  0.00060391  0.0405879 0.0000
 25  -1529.8473335899  -0.001278167305 0.00874526  0.00032019  0.0271433 0.0000
 26  -1529.8479264008  -0.000592810913 0.00808244  0.00025934  0.0166332 0.0000
 27  -1529.8482195349  -0.000293134063 0.00381857  0.00014921  0.0031923 0.0000
 28  -1529.8482520363  -0.000032501416 0.00342671  0.00013517  0.0010897 0.0000
 29  -1529.8482722907  -0.000020254447 1.16589383  0.03024857  0.0009561 0.0000
 30  -1529.5767616359   0.271510654832 0.00000416  0.00000017  0.3067798 0.7000

 WARNING: the maximum gradient error descreased on average only by a factor   1.1
          during the last 20 iterations

                      *** Initiating the TRAH-SCF procedure ***


TRAH GRID
---------

General Integration Accuracy     IntAcc      ... 3.467
Radial Grid Type                 RadialGrid  ... OptM3 with GC (2021)
Angular Grid (max. ang.)         AngularGrid ... 1 (Lebedev-50)
Angular grid pruning method      GridPruning ... 4 (adaptive)
Weight generation scheme         WeightScheme... Becke
Basis function cutoff            BFCut       ... 1.0000e-11
Integration weight cutoff        WCut        ... 1.0000e-14
Angular grids for H and He will be reduced by one unit
Partially contracted basis set               ... off
Rotationally invariant grid construction     ... off

Total number of grid points                  ...     6683
Total number of batches                      ...      106
Average number of points per batch           ...       63
Average number of grid points per atom       ...     1671

 --------------------------------------------------------------------------------------------
   Iter.        energy            ||Error||_2        Shift      TRadius  Mac/Mic        Rej.
 --------------------------------------------------------------------------------------------
WARNING: 13 diagonal Hessian elements are negative!
    0      -1529.576735974442     1.801417e+00                     0.400 (TRAH MAcro)   No
WARNING : negative HOMO - LUMO gap : -0.492941
    0     dE    -9.435737e-02     1.824951e+00    -1.8668e-01      0.104 (TRAH MIcro)
    0     dE    -1.532763e-01     8.391934e-01    -2.9181e-01      0.225 (TRAH MIcro)
    0     dE    -2.155665e-01     3.058669e+00    -3.7184e-01      0.399 (TRAH MIcro)
    0     dE    -1.912776e-01     4.732910e-01    -2.2271e+00      0.239 (TRAH MIcro)
    0     dE    -1.968868e-01     2.309569e-01    -2.2635e+00      0.243 (TRAH MIcro)
    0     dE    -1.965468e-01     1.423161e-01    -2.2670e+00      0.242 (TRAH MIcro)
    0     dE    -1.969432e-01     4.694472e-02    -2.2690e+00      0.242 (TRAH MIcro)
    0     dE    -1.973810e-01     5.277370e-03    -2.2693e+00      0.243 (TRAH MIcro)
WARNING: 7 diagonal Hessian elements are negative!
    1      -1529.736026415925     2.149325e-01                     0.480 (TRAH MAcro)   No
WARNING : negative HOMO - LUMO gap : -0.115601
    1     dE    -3.139248e-03     4.442993e-01    -6.2728e-03      0.030 (TRAH MIcro)
    1     dE    -5.358544e-03     4.134720e-01    -1.0671e-02      0.065 (TRAH MIcro)
    1     dE    -1.175181e-02     2.287968e-01    -2.2869e-02      0.167 (TRAH MIcro)
    1     dE    -1.583051e-02     3.290690e-01    -3.0164e-02      0.223 (TRAH MIcro)
    1     dE    -2.953739e-02     1.202075e+00    -4.8212e-02      0.475 (TRAH MIcro)
    1     dE    -3.887469e-02     4.894690e-01    -1.6884e-01      0.452 (TRAH MIcro)
    1     dE    -4.440477e-02     6.166979e-01    -2.0615e-01      0.480 (TRAH MIcro)
    1     dE    -5.070636e-02     1.929968e-01    -2.9941e-01      0.480 (TRAH MIcro)
    1     dE    -5.154783e-02     4.508526e-02    -3.1150e-01      0.480 (TRAH MIcro)
    1     dE    -5.136444e-02     4.256527e-02    -3.1561e-01      0.477 (TRAH MIcro)
    1     dE    -5.193125e-02     9.677644e-03    -3.1712e-01      0.480 (TRAH MIcro)
WARNING: 6 diagonal Hessian elements are negative!
    2      -1529.771330218954     3.868785e-01                     0.480 (TRAH MAcro)   No
WARNING : negative HOMO - LUMO gap : -0.082820
    2     dE    -6.241882e-03     1.493507e+00    -1.2456e-02      0.047 (TRAH MIcro)
    2     dE    -1.302624e-02     1.765124e+00    -2.5586e-02      0.135 (TRAH MIcro)
    2     dE    -6.295519e-02     4.299880e-01    -2.9063e-01      0.480 (TRAH MIcro)
    2     dE    -6.645769e-02     1.519402e-01    -3.2564e-01      0.480 (TRAH MIcro)
    2     dE    -6.764273e-02     7.838008e-02    -3.3838e-01      0.480 (TRAH MIcro)
    2     dE    -6.789560e-02     3.923998e-02    -3.4484e-01      0.479 (TRAH MIcro)
    2     dE    -6.828210e-02     1.849191e-02    -3.4637e-01      0.480 (TRAH MIcro)
    2     dE    -6.830191e-02     6.250140e-03    -3.4676e-01      0.480 (TRAH MIcro)
WARNING: 2 diagonal Hessian elements are negative!
    3      -1529.817157005192     4.203957e-01                     0.480 (TRAH MAcro)   No
WARNING : negative HOMO - LUMO gap : -0.037799
    3     dE    -5.771961e-03     1.090147e+00    -1.1528e-02      0.037 (TRAH MIcro)
    3     dE    -1.249766e-02     7.984828e-01    -2.4324e-02      0.166 (TRAH MIcro)
    3     dE    -1.527912e-02     9.298431e-01    -2.8949e-02      0.236 (TRAH MIcro)
    3     dE    -1.812799e-02     9.083260e-01    -3.3540e-02      0.285 (TRAH MIcro)
    3     dE    -2.618875e-02     9.304550e-01    -4.5725e-02      0.381 (TRAH MIcro)
    3     dE    -4.145556e-02     1.699137e-01    -1.4810e-01      0.480 (TRAH MIcro)
    3     dE    -3.909284e-02     2.419421e-02    -1.7559e-01      0.435 (TRAH MIcro)
    3     dE    -3.920217e-02     8.171990e-03    -1.7568e-01      0.436 (TRAH MIcro)
WARNING: 6 diagonal Hessian elements are negative!
    4      -1529.833657529029     4.258234e-01                     0.480 (TRAH MAcro)   No
WARNING : negative HOMO - LUMO gap : -0.040523
    4     dE    -5.783941e-03     5.047579e-01    -1.1559e-02      0.028 (TRAH MIcro)
    4     dE    -9.100329e-03     4.031826e-01    -1.8121e-02      0.066 (TRAH MIcro)
    4     dE    -1.143347e-02     3.615553e-01    -2.2524e-02      0.123 (TRAH MIcro)
    4     dE    -1.247426e-02     3.077349e-01    -2.4374e-02      0.154 (TRAH MIcro)
    4     dE    -2.063786e-02     2.178783e-01    -3.5301e-02      0.411 (TRAH MIcro)
    4     dE    -2.475637e-02     1.191721e-01    -5.3110e-02      0.480 (TRAH MIcro)
    4     dE    -2.558266e-02     7.449524e-02    -6.1996e-02      0.480 (TRAH MIcro)
    4     dE    -2.607825e-02     4.414941e-02    -6.8118e-02      0.479 (TRAH MIcro)
    4     dE    -2.620463e-02     1.620662e-02    -6.9388e-02      0.480 (TRAH MIcro)
    4     dE    -2.620901e-02     1.375742e-02    -6.9496e-02      0.480 (TRAH MIcro)
    4     dE    -2.622333e-02     1.727577e-02    -7.0324e-02      0.480 (TRAH MIcro)
    4     dE    -2.623212e-02     4.011254e-03    -7.0909e-02      0.480 (TRAH MIcro)
WARNING: 2 diagonal Hessian elements are negative!
    5      -1529.835665011103     5.421044e-01                     0.336 (TRAH MAcro)   No
WARNING : negative HOMO - LUMO gap : -0.027983
    5     dE    -9.202299e-03     3.854455e-01    -1.8383e-02      0.034 (TRAH MIcro)
    5     dE    -1.145511e-02     1.424182e-01    -2.2832e-02      0.059 (TRAH MIcro)
    5     dE    -1.202882e-02     9.876564e-02    -2.3954e-02      0.066 (TRAH MIcro)
    5     dE    -1.241103e-02     5.889107e-02    -2.4676e-02      0.077 (TRAH MIcro)
    5     dE    -1.248796e-02     2.797124e-02    -2.4842e-02      0.073 (TRAH MIcro)
    5     dE    -1.249635e-02     3.328883e-02    -2.4856e-02      0.074 (TRAH MIcro)
    5     dE    -1.250515e-02     3.181850e-02    -2.4874e-02      0.074 (TRAH MIcro)
    5     dE    -1.426023e-02     1.317003e-01    -2.6874e-02      0.336 (TRAH MIcro)
    5     dE    -1.412383e-02     1.262860e-02    -3.9089e-02      0.276 (TRAH MIcro)
    5     dE    -1.428918e-02     3.882615e-03    -3.9132e-02      0.290 (TRAH MIcro)
WARNING: 5 diagonal Hessian elements are negative!
    6      -1529.840736151850     2.215122e-01                     0.336 (TRAH MAcro)   No
WARNING : negative HOMO - LUMO gap : -0.027234
    6     dE    -1.831266e-03     2.376684e-01    -3.6614e-03      0.017 (TRAH MIcro)
    6     dE    -5.127987e-03     2.002615e-01    -1.0172e-02      0.091 (TRAH MIcro)
    6     dE    -5.527733e-03     1.683918e-01    -1.0937e-02      0.104 (TRAH MIcro)
    6     dE    -5.665543e-03     1.435714e-01    -1.1198e-02      0.109 (TRAH MIcro)
    6     dE    -5.852236e-03     1.107541e-01    -1.1549e-02      0.116 (TRAH MIcro)
    6     dE    -6.170814e-03     4.837529e-02    -1.2093e-02      0.143 (TRAH MIcro)
    6     dE    -6.346528e-03     3.346059e-02    -1.2357e-02      0.165 (TRAH MIcro)
    6     dE    -6.926674e-03     6.545384e-02    -1.3082e-02      0.243 (TRAH MIcro)
    6     dE    -7.975714e-03     7.447146e-02    -2.0459e-02      0.336 (TRAH MIcro)
    6     dE    -8.443232e-03     1.942462e-02    -3.1373e-02      0.336 (TRAH MIcro)
    6     dE    -8.458104e-03     1.682804e-02    -3.1732e-02      0.336 (TRAH MIcro)
    6     dE    -8.506027e-03     3.333707e-02    -3.3263e-02      0.336 (TRAH MIcro)
    6     dE    -8.545517e-03     4.083562e-03    -3.4734e-02      0.336 (TRAH MIcro)
WARNING: 1 diagonal Hessian elements are negative!
    7      -1529.844091206336     2.106716e-01                     0.336 (TRAH MAcro)   No
WARNING : negative HOMO - LUMO gap : -0.009445
    7     dE    -1.337201e-03     1.992185e-01    -2.6739e-03      0.013 (TRAH MIcro)
    7     dE    -2.295202e-03     2.031031e-01    -4.5687e-03      0.069 (TRAH MIcro)
    7     dE    -2.588772e-03     1.604798e-01    -5.1344e-03      0.092 (TRAH MIcro)
    7     dE    -2.706837e-03     1.464963e-01    -5.3563e-03      0.104 (TRAH MIcro)
    7     dE    -2.845591e-03     1.539218e-01    -5.6150e-03      0.116 (TRAH MIcro)
    7     dE    -3.029359e-03     1.233387e-01    -5.9726e-03      0.120 (TRAH MIcro)
    7     dE    -3.452922e-03     8.599322e-02    -6.7011e-03      0.175 (TRAH MIcro)
    7     dE    -3.917100e-03     2.704463e-02    -7.3777e-03      0.249 (TRAH MIcro)
    7     dE    -3.984024e-03     1.189410e-02    -7.4691e-03      0.258 (TRAH MIcro)
    7     dE    -3.996272e-03     2.042338e-03    -7.4870e-03      0.260 (TRAH MIcro)
WARNING: 3 diagonal Hessian elements are negative!
    8      -1529.847476393898     5.979957e-02                     0.403 (TRAH MAcro)   No
WARNING : negative HOMO - LUMO gap : -0.008223
    8     dE    -1.490761e-04     1.335730e-01    -2.9814e-04      0.006 (TRAH MIcro)
    8     dE    -2.716903e-04     1.970594e-01    -5.4284e-04      0.032 (TRAH MIcro)
    8     dE    -5.736775e-04     1.525217e-01    -1.1450e-03      0.046 (TRAH MIcro)
    8     dE    -6.179737e-04     1.209821e-01    -1.2332e-03      0.047 (TRAH MIcro)
    8     dE    -7.680019e-04     7.470627e-02    -1.5280e-03      0.072 (TRAH MIcro)
    8     dE    -8.517733e-04     6.064584e-02    -1.6888e-03      0.093 (TRAH MIcro)
    8     dE    -9.542917e-04     1.562664e-02    -1.8819e-03      0.119 (TRAH MIcro)
    8     dE    -9.674903e-04     1.045464e-02    -1.9066e-03      0.122 (TRAH MIcro)
    8     dE    -9.724315e-04     2.754486e-03    -1.9157e-03      0.123 (TRAH MIcro)
WARNING: 3 diagonal Hessian elements are negative!
    9      -1529.848427460416     2.679438e-02                     0.484 (TRAH MAcro)   No
WARNING : negative HOMO - LUMO gap : -0.006069
    9     dE    -2.022879e-05     3.953391e-02    -4.0457e-05      0.002 (TRAH MIcro)
    9     dE    -2.710819e-05     1.639844e-02    -5.4216e-05      0.004 (TRAH MIcro)
    9     dE    -2.873944e-05     8.641505e-03    -5.7478e-05      0.004 (TRAH MIcro)
    9     dE    -2.953796e-05     7.790338e-03    -5.9074e-05      0.005 (TRAH MIcro)
    9     dE    -2.997777e-05     6.932265e-03    -5.9954e-05      0.005 (TRAH MIcro)
    9     dE    -3.042255e-05     4.695531e-03    -6.0843e-05      0.006 (TRAH MIcro)
    9     dE    -3.120435e-05     3.996509e-03    -6.2404e-05      0.009 (TRAH MIcro)
    9     dE    -3.137860e-05     7.254394e-04    -6.2751e-05      0.010 (TRAH MIcro)
WARNING: 3 diagonal Hessian elements are negative!
   10      -1529.848459173781     7.577188e-04                           (NR   MAcro)
WARNING : negative HOMO - LUMO gap : -0.007847
   10     dE    -1.095090e-08     7.001936e-04                           (NR   MIcro)
   10     dE    -2.632739e-08     4.316700e-04                           (NR   MIcro)
   10     dE    -4.525446e-08     6.609814e-04                           (NR   MIcro)
   10     dE    -7.513215e-08     1.170584e-03                           (NR   MIcro)
   10     dE    -1.211339e-07     1.481302e-03                           (NR   MIcro)
   10     dE    -1.838186e-07     9.471246e-04                           (NR   MIcro)
   10     dE    -1.925421e-07     7.571697e-04                           (NR   MIcro)
   10     dE    -2.046759e-07     7.928914e-05                           (NR   MIcro)
   10     dE    -2.069286e-07     1.956015e-04                           (NR   MIcro)
   10     dE    -2.103807e-07     1.743901e-04                           (NR   MIcro)
   10     dE    -2.127475e-07     6.700678e-05                           (NR   MIcro)
   10     dE    -2.129368e-07     6.900366e-06                           (NR   MIcro)
   10     dE    -2.129393e-07     1.116049e-06                           (NR   MIcro)
WARNING: 3 diagonal Hessian elements are negative!
   11      -1529.848459387941     1.082222e-05                           (NR   MAcro)
WARNING : negative HOMO - LUMO gap : -0.007853
   11     dE    -2.362947e-12     7.360513e-06                           (NR   MIcro)
   11     dE    -5.125520e-12     3.491971e-06                           (NR   MIcro)
   11     dE    -5.948608e-12     2.393113e-06                           (NR   MIcro)
   11     dE    -6.569680e-12     2.398720e-06                           (NR   MIcro)
   11     dE    -7.196048e-12     3.185414e-06                           (NR   MIcro)
   11     dE    -1.200283e-11     4.259728e-06                           (NR   MIcro)
   11     dE    -1.289193e-11     1.745152e-06                           (NR   MIcro)
   11     dE    -1.323070e-11     8.015167e-07                           (NR   MIcro)
WARNING: 3 diagonal Hessian elements are negative!
   12      -1529.848459387954     8.033147e-07                           (NR   MAcro)
WARNING : negative HOMO - LUMO gap : -0.007854

               *****************************************************
[...]
Density matrix formation    ....       0.000 sec  (  0.0%)
Population analysis         ....       0.022 sec  (  1.3%)
Initial guess               ....       0.002 sec  (  0.1%)
Orbital Transformation      ....       0.000 sec  (  0.0%)
Orbital Orthonormalization  ....       0.001 sec  (  0.1%)
DIIS solution               ....       0.050 sec  (  3.0%)
Grid generation             ....       0.123 sec  (  7.5%)

Maximum memory used throughout the entire SCF-calculation: 9.5 MB

-------------------------   --------------------
FINAL SINGLE POINT ENERGY     -1529.878776059700
-------------------------   --------------------

                                *** OPTIMIZATION RUN DONE ***

                            ***************************************
                            *     ORCA property calculations      *
                            ***************************************

                                    ---------------------
                                    Active property flags
                                    ---------------------
   (+) Dipole Moment
   (+) Polarizability


------------------------------------------------------------------------------
                       ORCA ELECTRIC PROPERTIES CALCULATION
------------------------------------------------------------------------------

Dipole Moment Calculation                       ... on
Quadrupole Moment Calculation                   ... off
Polarizability Calculation                      ... Analytic (CP-SCF)
GBWName                                         ... CoOOH_Solv_COMPLETE.gbw
Electron density                                ... CoOOH_Solv_COMPLETE.scfp
The origin for moment calculation is the CENTER OF MASS  = (-3.185369,  4.707093 -0.000000)

-------------
DIPOLE MOMENT
-------------
                                X             Y             Z
Electronic contribution:     -0.94798       0.39843      -0.00000
Nuclear contribution   :      2.65197       0.11076      -0.00000
                        -----------------------------------------
Total Dipole Moment    :      1.70399       0.50919      -0.00000
                        -----------------------------------------
Magnitude (a.u.)       :      1.77844
Magnitude (Debye)      :      4.52043



--------------------
Rotational spectrum 
--------------------
 
Rotational constants in cm-1:     9.705009     0.200275     0.196226 
Rotational constants in MHz : 290948.843953  6004.096450  5882.699523 

 Dipole components along the rotational axes: 
x,y,z [a.u.] :     1.758022     0.268704    -0.000003 
x,y,z [Debye]:     4.468538     0.682993    -0.000006 

 
Transforming and storing MO dipole integrals   ... done

                ... starting polarizability calculation

The origin for moment calculation is the CENTER OF MASS  = (-3.185369,  4.707093 -0.000000)
Opening the Dipole integral file               ... (CoOOH_Solv_COMPLETE.dmo.tmp) done
Reading Dipole-MO integrals                    ... done
Solving CP-SCF equations                       ... 

           ************************************************************
           *        Program running with 5 parallel MPI-processes     *
           *              working on a common directory               *
           ************************************************************

------------------------------------------------------------------------------
                           ORCA CP-SCF CALCULATION
------------------------------------------------------------------------------

Input orbitals are from        ... CoOOH_Solv_COMPLETE.gbw
Input Perturbation             ... CoOOH_Solv_COMPLETE.cpv.tmp
Wavefunction output            ... CoOOH_Solv_COMPLETE.cpu.tmp
Perturbation mode              ... Real perturbation (singlet)
Solver                         ... POPLE
Max. number of iterations      ... 64
Convergence tolerance          ... 1.000e-04
Integral handling              ... Direct
DFT GridXC                     ... 1
Number of perturbations        ... 3
Number of operators            ... 1
Orbital ranges used for CP-SCF:
 Operator 0:  Orbitals   0... 21  to  22... 63
Variables per perturbation     ... 924
DFT calculation                         ... on
XC functional terms                     ... on
Exchange functional (SCF)               ... Slater
Exchange functional (CP-SCF)            ... Slater
   X-Alpha parameter    XAlpha (SCF)    ...  0.666667
   X-Alpha parameter    XAlpha (CP-SCF) ...  0.666667
Correlation functional (SCF)            ... VWN-5
Correlation functional (CP-SCF)         ... VWN-5

CP-SCF GRID
-----------

General Integration Accuracy     IntAcc      ... 3.467
Radial Grid Type                 RadialGrid  ... OptM3 with GC (2021)
Angular Grid (max. ang.)         AngularGrid ... 1 (Lebedev-50)
Angular grid pruning method      GridPruning ... 4 (adaptive)
Weight generation scheme         WeightScheme... Becke
Basis function cutoff            BFCut       ... 1.0000e-11
Integration weight cutoff        WCut        ... 1.0000e-14
Angular grids for H and He will be reduced by one unit
Partially contracted basis set               ... off
Rotationally invariant grid construction     ... off

Total number of grid points                  ...     6689
Total number of batches                      ...      107
Average number of points per batch           ...       62
Average number of grid points per atom       ...     1672

Recalculating density on grid  ... done
Calculating the xc-kernel      ... done
Memory available               ... 1020.3 MB
Memory needed per perturbation ...   0.3 MB
Perturbations treated per batch... 3
Number of batches              ... 1
     CP-SCF ITERATION   0:   2.0413e+02 (   0.1 sec   0/  3 done)
     CP-SCF ITERATION   1:   3.7778e+00 (   0.1 sec   0/  3 done)
     CP-SCF ITERATION   2:   2.5658e+00 (   0.1 sec   0/  3 done)
     CP-SCF ITERATION   3:   5.4864e-01 (   0.1 sec   0/  3 done)
     CP-SCF ITERATION   4:   1.7413e-01 (   0.1 sec   0/  3 done)
     CP-SCF ITERATION   5:   5.5964e-02 (   0.1 sec   0/  3 done)
     CP-SCF ITERATION   6:   9.9684e-03 (   0.1 sec   0/  3 done)
     CP-SCF ITERATION   7:   6.9753e-03 (   0.1 sec   0/  3 done)
     CP-SCF ITERATION   8:   9.7824e-04 (   0.1 sec   0/  3 done)
     CP-SCF ITERATION   9:   1.1698e-04 (   0.1 sec   2/  3 done)
     CP-SCF ITERATION  10:   1.8755e-05 (   0.1 sec   3/  3 done)
                    *** THE CP-SCF HAS CONVERGED ***
done
Reading CP-SCF coefficients                    ... done
Doing the polarizability tensor                ... done
Cleaning up                                    ... done

-------------------------
THE POLARIZABILITY TENSOR
-------------------------

The raw cartesian tensor (atomic units):
   56.51728     14.59015     -0.00000  
   14.59015     29.24907      0.00000  
   -0.00000      0.00000     20.78013  
diagonalized tensor: 
   20.78013     22.91416     62.85218  

    0.00000     -0.39827     -0.91727  
   -0.00000      0.91727     -0.39827  
    1.00000      0.00000     -0.00000  

Isotropic polarizability :  35.51549


----------------------------------------------------------------------------
                           ORCA NUMERICAL FREQUENCIES
                              (5-process run)
----------------------------------------------------------------------------

Number of atoms                ... 4
Central differences            ... used
Number of displacements        ... 24
Numerical increment            ... 5.000e-03 bohr
IR-spectrum generation         ... on
Raman-spectrum generation      ... on
Polarizability calculation     ... 1
Surface Crossing Hessian       ... off

The output will be reduced. Please look at the following files:
SCF program output             ... >CoOOH_Solv_COMPLETE.lastscf
Integral program output        ... >CoOOH_Solv_COMPLETE.lastint
Gradient program output        ... >CoOOH_Solv_COMPLETE.lastgrad
Dipole moment program output   ... >CoOOH_Solv_COMPLETE.lastmom
AutoCI program output          ... >CoOOH_Solv_COMPLETE.lastautoci

	<< Calculating on displaced geometry   5 (of  24) >>
	<< Calculating on displaced geometry   1 (of  24) >>
	<< Calculating on displaced geometry   3 (of  24) >>
	<< Calculating on displaced geometry   2 (of  24) >>
	<< Calculating on displaced geometry   4 (of  24) >>
	<< Calculating on displaced geometry   6 (of  24) >>
	<< Calculating on displaced geometry   7 (of  24) >>
	<< Calculating on displaced geometry   8 (of  24) >>
	<< Calculating on displaced geometry   9 (of  24) >>
	<< Calculating on displaced geometry  10 (of  24) >>
	<< Calculating on displaced geometry  12 (of  24) >>
	<< Calculating on displaced geometry  11 (of  24) >>
	<< Calculating on displaced geometry  14 (of  24) >>
	<< Calculating on displaced geometry  13 (of  24) >>
	<< Calculating on displaced geometry  15 (of  24) >>
	<< Calculating on displaced geometry  16 (of  24) >>
	<< Calculating on displaced geometry  17 (of  24) >>
	<< Calculating on displaced geometry  18 (of  24) >>
	<< Calculating on displaced geometry  19 (of  24) >>
	<< Calculating on displaced geometry  20 (of  24) >>
	<< Calculating on displaced geometry  21 (of  24) >>
	<< Calculating on displaced geometry  22 (of  24) >>
	<< Calculating on displaced geometry  23 (of  24) >>
	<< Calculating on displaced geometry  24 (of  24) >>

-----------------------
VIBRATIONAL FREQUENCIES
-----------------------

Scaling factor for frequencies =  1.000000000 (already applied!)

   0:         0.00 cm**-1
   1:         0.00 cm**-1
   2:         0.00 cm**-1
   3:         0.00 cm**-1
   4:         0.00 cm**-1
   5:         0.00 cm**-1
   6:        96.84 cm**-1
   7:       542.90 cm**-1
   8:       580.96 cm**-1
   9:       837.33 cm**-1
  10:      1069.72 cm**-1
  11:      3669.85 cm**-1


------------
NORMAL MODES
------------

These modes are the cartesian displacements weighted by the diagonal matrix
M(i,i)=1/sqrt(m[i]) where m[i] is the mass of the displaced atom
Thus, these vectors are normalized but *not* orthogonal

                  0          1          2          3          4          5    
      0       0.000000   0.000000   0.000000   0.000000   0.000000   0.000000
      1       0.000000   0.000000   0.000000   0.000000   0.000000   0.000000
      2       0.000000   0.000000   0.000000   0.000000   0.000000   0.000000
      3       0.000000   0.000000   0.000000   0.000000   0.000000   0.000000
      4       0.000000   0.000000   0.000000   0.000000   0.000000   0.000000
      5       0.000000   0.000000   0.000000   0.000000   0.000000   0.000000
      6       0.000000   0.000000   0.000000   0.000000   0.000000   0.000000
      7       0.000000   0.000000   0.000000   0.000000   0.000000   0.000000
      8       0.000000   0.000000   0.000000   0.000000   0.000000   0.000000
      9       0.000000   0.000000   0.000000   0.000000   0.000000   0.000000
     10       0.000000   0.000000   0.000000   0.000000   0.000000   0.000000
     11       0.000000   0.000000   0.000000   0.000000   0.000000   0.000000
                  6          7          8          9         10         11    
      0       0.062255  -0.000089  -0.012380  -0.107610   0.262703   0.000079
      1      -0.120325  -0.000166   0.032367   0.004763   0.166786   0.000116
      2       0.000075  -0.035892  -0.000015   0.000103  -0.000172  -0.000001
      3      -0.187784  -0.000028   0.044990  -0.238897  -0.709652  -0.000750
      4       0.211439   0.000279  -0.029440  -0.190060  -0.525919  -0.000605
      5      -0.000106   0.051203   0.000022  -0.000147   0.000245   0.000002
      6      -0.043801   0.000331  -0.006473   0.595801  -0.243614   0.062988
      7       0.173046   0.000302  -0.151519   0.150211  -0.084153  -0.006425
      8      -0.000299   0.143231   0.000061  -0.000410   0.000688   0.000004
      9       0.036179   0.000395   0.112433   0.626352  -0.227928  -0.992475
     10       0.931933   0.000517   0.979932   0.354026  -0.067593   0.104801
     11       0.002062  -0.987712  -0.000424   0.002825  -0.004743  -0.000029


-----------
IR SPECTRUM
-----------

 Mode   freq       eps      Int      T**2         TX        TY        TZ
       cm**-1   L/(mol*cm) km/mol    a.u.
----------------------------------------------------------------------------
  6:     96.84   0.004197   21.21  0.013526  ( 0.062368  0.098165  0.000333)
  7:    542.90   0.022875  115.60  0.013148  (-0.001175 -0.000469 -0.114660)
  8:    580.96   0.027645  139.71  0.014849  ( 0.036802  0.116168 -0.000050)
  9:    837.33   0.004810   24.31  0.001793  (-0.041808  0.006692  0.000103)
 10:   1069.72   0.034345  173.57  0.010019  ( 0.081718  0.057806 -0.000109)
 11:   3669.85   0.139226  703.59  0.011839  (-0.108200 -0.011482 -0.000002)

* The epsilon (eps) is given for a Dirac delta lineshape.
** The dipole moment derivative (T) already includes vibrational overlap.

--------------
RAMAN SPECTRUM  
--------------

 Mode    freq (cm**-1)   Activity   Depolarization
-------------------------------------------------------------------
   6:        96.84      5.225857      0.741132
   7:       542.90      6.136426      0.749999
   8:       580.96      4.287900      0.463144
   9:       837.33     39.978193      0.341307
  10:      1069.72      9.425915      0.607794
  11:      3669.85    347.363089      0.297946

The first frequency considered to be a vibration is 6
The total number of vibrations considered is 6


--------------------------
THERMOCHEMISTRY AT 298.15K
--------------------------

Temperature         ... 298.15 K
Pressure            ... 1.00 atm
Total Mass          ... 91.94 AMU

Throughout the following assumptions are being made:
  (1) The electronic state is orbitally nondegenerate
  (2) There are no thermally accessible electronically excited states
  (3) Hindered rotations indicated by low frequency modes are not
      treated as such but are treated as vibrations and this may
      cause some error
  (4) All equations used are the standard statistical mechanics
      equations for an ideal gas
  (5) All vibrations are strictly harmonic

freq.      96.84  E(vib)   ...       0.46 
freq.     542.90  E(vib)   ...       0.12 
freq.     580.96  E(vib)   ...       0.11 
freq.     837.33  E(vib)   ...       0.04 
freq.    1069.72  E(vib)   ...       0.02 
freq.    3669.85  E(vib)   ...       0.00 

------------
INNER ENERGY
------------

The inner energy is: U= E(el) + E(ZPE) + E(vib) + E(rot) + E(trans)
    E(el)   - is the total energy from the electronic structure calculation
              = E(kin-el) + E(nuc-el) + E(el-el) + E(nuc-nuc)
    E(ZPE)  - the the zero temperature vibrational energy from the frequency calculation
    E(vib)  - the the finite temperature correction to E(ZPE) due to population
              of excited vibrational states
    E(rot)  - is the rotational thermal energy
    E(trans)- is the translational thermal energy

Summary of contributions to the inner energy U:
Electronic energy                ...  -1529.87877607 Eh
Zero point energy                ...      0.01548609 Eh       9.72 kcal/mol
Thermal vibrational correction   ...      0.00120213 Eh       0.75 kcal/mol
Thermal rotational correction    ...      0.00141627 Eh       0.89 kcal/mol
Thermal translational correction ...      0.00141627 Eh       0.89 kcal/mol
-----------------------------------------------------------------------
Total thermal energy                  -1529.85925530 Eh


Summary of corrections to the electronic energy:
(perhaps to be used in another calculation)
Total thermal correction                  0.00403467 Eh       2.53 kcal/mol
Non-thermal (ZPE) correction              0.01548609 Eh       9.72 kcal/mol
-----------------------------------------------------------------------
Total correction                          0.01952076 Eh      12.25 kcal/mol


--------
ENTHALPY
--------

The enthalpy is H = U + kB*T
                kB is Boltzmann's constant
Total free energy                 ...  -1529.85925530 Eh 
Thermal Enthalpy correction       ...      0.00094421 Eh       0.59 kcal/mol
-----------------------------------------------------------------------
Total Enthalpy                    ...  -1529.85831109 Eh


Note: Rotational entropy computed according to Herzberg 
Infrared and Raman Spectra, Chapter V,1, Van Nostrand Reinhold, 1945 
Point Group:  Cs, Symmetry Number:   1  
Rotational constants in cm-1:     9.705009     0.200275     0.196226 

Vibrational entropy computed according to the QRRHO of S. Grimme
Chem.Eur.J. 2012 18 9955


-------
ENTROPY
-------

The entropy contributions are T*S = T*(S(el)+S(vib)+S(rot)+S(trans))
     S(el)   - electronic entropy
     S(vib)  - vibrational entropy
     S(rot)  - rotational entropy
     S(trans)- translational entropy
The entropies will be listed as multiplied by the temperature to get
units of energy

Electronic entropy                ...      0.00000000 Eh      0.00 kcal/mol
Vibrational entropy               ...      0.00212645 Eh      1.33 kcal/mol
Rotational entropy                ...      0.00996586 Eh      6.25 kcal/mol
Translational entropy             ...      0.01875217 Eh     11.77 kcal/mol
-----------------------------------------------------------------------
Final entropy term                ...      0.03084448 Eh     19.36 kcal/mol

In case the symmetry of your molecule has not been determined correctly
or in case you have a reason to use a different symmetry number we print 
out the resulting rotational entropy values for sn=1,12 :
 --------------------------------------------------------
|  sn= 1 | S(rot)=       0.00996586 Eh      6.25 kcal/mol|
|  sn= 2 | S(rot)=       0.00931141 Eh      5.84 kcal/mol|
|  sn= 3 | S(rot)=       0.00892857 Eh      5.60 kcal/mol|
|  sn= 4 | S(rot)=       0.00865695 Eh      5.43 kcal/mol|
|  sn= 5 | S(rot)=       0.00844626 Eh      5.30 kcal/mol|
|  sn= 6 | S(rot)=       0.00827412 Eh      5.19 kcal/mol|
|  sn= 7 | S(rot)=       0.00812857 Eh      5.10 kcal/mol|
|  sn= 8 | S(rot)=       0.00800249 Eh      5.02 kcal/mol|
|  sn= 9 | S(rot)=       0.00789129 Eh      4.95 kcal/mol|
|  sn=10 | S(rot)=       0.00779181 Eh      4.89 kcal/mol|
|  sn=11 | S(rot)=       0.00770182 Eh      4.83 kcal/mol|
|  sn=12 | S(rot)=       0.00761966 Eh      4.78 kcal/mol|
 --------------------------------------------------------


-------------------
GIBBS FREE ENERGY
-------------------

The Gibbs free energy is G = H - T*S

Total enthalpy                    ...  -1529.85831109 Eh 
Total entropy correction          ...     -0.03084448 Eh    -19.36 kcal/mol
-----------------------------------------------------------------------
Final Gibbs free energy         ...  -1529.88915558 Eh

For completeness - the Gibbs free energy minus the electronic energy
G-E(el)                           ...     -0.01037951 Eh     -6.51 kcal/mol



Timings for individual modules:

Sum of individual times         ...      230.955 sec (=   3.849 min)
GTO integral calculation        ...       23.877 sec (=   0.398 min)  10.3 %
SCF iterations                  ...      103.230 sec (=   1.721 min)  44.7 %
Solution of CP-SCF eqns.        ...        2.546 sec (=   0.042 min)   1.1 %
SCF Gradient evaluation         ...       28.617 sec (=   0.477 min)  12.4 %
Geometry relaxation             ...        1.736 sec (=   0.029 min)   0.8 %
Numerical frequency calculation ...       70.949 sec (=   1.182 min)  30.7 %
                             ****ORCA TERMINATED NORMALLY****
TOTAL RUN TIME: 0 days 0 hours 3 minutes 47 seconds 229 msec
