
                                 *****************
                                 * O   R   C   A *
                                 *****************

                                            #,                                       
                                            ###                                      
                                            ####                                     
                                            #####                                    
                                            ######                                   
                                           ########,                                 
                                     ,,################,,,,,                         
                               ,,#################################,,                 
                          ,,##########################################,,             
                       ,#########################################, ''#####,          
                    ,#############################################,,   '####,        
                  ,##################################################,,,,####,       
                ,###########''''           ''''###############################       
              ,#####''   ,,,,##########,,,,          '''####'''          '####       
            ,##' ,,,,###########################,,,                        '##       
           ' ,,###''''                  '''############,,,                           
         ,,##''                                '''############,,,,        ,,,,,,###''
      ,#''                                            '''#######################'''  
     '                                                          ''''####''''         
             ,#######,   #######,   ,#######,      ##                                
            ,#'     '#,  ##    ##  ,#'     '#,    #''#        ######   ,####,        
            ##       ##  ##   ,#'  ##            #'  '#       #        #'  '#        
            ##       ##  #######   ##           ,######,      #####,   #    #        
            '#,     ,#'  ##    ##  '#,     ,#' ,#      #,         ##   #,  ,#        
             '#######'   ##     ##  '#######'  #'      '#     #####' # '####'        



                  #######################################################
                  #                        -***-                        #
                  #          Department of theory and spectroscopy      #
                  #    Directorship and core code : Frank Neese         #
                  #        Max Planck Institute fuer Kohlenforschung    #
                  #                Kaiser Wilhelm Platz 1               #
                  #                 D-45470 Muelheim/Ruhr               #
                  #                      Germany                        #
                  #                                                     #
                  #                  All rights reserved                #
                  #                        -***-                        #
                  #######################################################


                         Program Version 5.0.3 -  RELEASE  -


 With contributions from (in alphabetic order):
   Daniel Aravena         : Magnetic Suceptibility
   Michael Atanasov       : Ab Initio Ligand Field Theory (pilot matlab implementation)
   Alexander A. Auer      : GIAO ZORA, VPT2 properties, NMR spectrum
   Ute Becker             : Parallelization
   Giovanni Bistoni       : ED, misc. LED, open-shell LED, HFLD
   Martin Brehm           : Molecular dynamics
   Dmytro Bykov           : SCF Hessian
   Vijay G. Chilkuri      : MRCI spin determinant printing, contributions to CSF-ICE
   Dipayan Datta          : RHF DLPNO-CCSD density
   Achintya Kumar Dutta   : EOM-CC, STEOM-CC
   Dmitry Ganyushin       : Spin-Orbit,Spin-Spin,Magnetic field MRCI
   Miquel Garcia          : C-PCM and meta-GGA Hessian, CC/C-PCM, Gaussian charge scheme
   Yang Guo               : DLPNO-NEVPT2, F12-NEVPT2, CIM, IAO-localization
   Andreas Hansen         : Spin unrestricted coupled pair/coupled cluster methods
   Benjamin Helmich-Paris : MC-RPA, TRAH-SCF, COSX integrals
   Lee Huntington         : MR-EOM, pCC
   Robert Izsak           : Overlap fitted RIJCOSX, COSX-SCS-MP3, EOM
   Marcus Kettner         : VPT2
   Christian Kollmar      : KDIIS, OOCD, Brueckner-CCSD(T), CCSD density, CASPT2, CASPT2-K
   Simone Kossmann        : Meta GGA functionals, TD-DFT gradient, OOMP2, MP2 Hessian
   Martin Krupicka        : Initial AUTO-CI
   Lucas Lang             : DCDCAS
   Marvin Lechner         : AUTO-CI (C++ implementation), FIC-MRCC
   Dagmar Lenk            : GEPOL surface, SMD
   Dimitrios Liakos       : Extrapolation schemes; Compound Job, initial MDCI parallelization
   Dimitrios Manganas     : Further ROCIS development; embedding schemes
   Dimitrios Pantazis     : SARC Basis sets
   Anastasios Papadopoulos: AUTO-CI, single reference methods and gradients
   Taras Petrenko         : DFT Hessian,TD-DFT gradient, ASA, ECA, R-Raman, ABS, FL, XAS/XES, NRVS
   Peter Pinski           : DLPNO-MP2, DLPNO-MP2 Gradient
   Christoph Reimann      : Effective Core Potentials
   Marius Retegan         : Local ZFS, SOC
   Christoph Riplinger    : Optimizer, TS searches, QM/MM, DLPNO-CCSD(T), (RO)-DLPNO pert. Triples
   Tobias Risthaus        : Range-separated hybrids, TD-DFT gradient, RPA, STAB
   Michael Roemelt        : Original ROCIS implementation
   Masaaki Saitow         : Open-shell DLPNO-CCSD energy and density
   Barbara Sandhoefer     : DKH picture change effects
   Avijit Sen             : IP-ROCIS
   Kantharuban Sivalingam : CASSCF convergence, NEVPT2, FIC-MRCI
   Bernardo de Souza      : ESD, SOC TD-DFT
   Georgi Stoychev        : AutoAux, RI-MP2 NMR, DLPNO-MP2 response
   Willem Van den Heuvel  : Paramagnetic NMR
   Boris Wezisla          : Elementary symmetry handling
   Frank Wennmohs         : Technical directorship


 We gratefully acknowledge several colleagues who have allowed us to
 interface, adapt or use parts of their codes:
   Stefan Grimme, W. Hujo, H. Kruse, P. Pracht,  : VdW corrections, initial TS optimization,
                  C. Bannwarth, S. Ehlert          DFT functionals, gCP, sTDA/sTD-DF
   Ed Valeev, F. Pavosevic, A. Kumar             : LibInt (2-el integral package), F12 methods
   Garnet Chan, S. Sharma, J. Yang, R. Olivares  : DMRG
   Ulf Ekstrom                                   : XCFun DFT Library
   Mihaly Kallay                                 : mrcc  (arbitrary order and MRCC methods)
   Jiri Pittner, Ondrej Demel                    : Mk-CCSD
   Frank Weinhold                                : gennbo (NPA and NBO analysis)
   Christopher J. Cramer and Donald G. Truhlar   : smd solvation model
   Lars Goerigk                                  : TD-DFT with DH, B97 family of functionals
   V. Asgeirsson, H. Jonsson                     : NEB implementation
   FAccTs GmbH                                   : IRC, NEB, NEB-TS, DLPNO-Multilevel, CI-OPT
                                                   MM, QMMM, 2- and 3-layer-ONIOM, Crystal-QMMM,
                                                   LR-CPCM, SF, NACMEs, symmetry and pop. for TD-DFT,
                                                   nearIR, NL-DFT gradient (VV10), updates on ESD,
                                                   ML-optimized integration grids
   S Lehtola, MJT Oliveira, MAL Marques          : LibXC Library
   Liviu Ungur et al                             : ANISO software


 Your calculation uses the libint2 library for the computation of 2-el integrals
 For citations please refer to: http://libint.valeyev.net

 Your ORCA version has been built with support for libXC version: 5.1.0
 For citations please refer to: https://tddft.org/programs/libxc/

 This ORCA versions uses:
   CBLAS   interface :  Fast vector & matrix operations
   LAPACKE interface :  Fast linear algebra routines
   Shared memory     :  Shared parallel matrices


SCAN-COORDS
================================================================================

----- Orbital basis set information -----
Your calculation utilizes the basis: def2-TZVP
   F. Weigend and R. Ahlrichs, Phys. Chem. Chem. Phys. 7, 3297 (2005).

----- AuxJ basis set information -----
Your calculation utilizes the auxiliary basis: def2/J
   F. Weigend, Phys. Chem. Chem. Phys. 8, 1057 (2006).

================================================================================
                                        WARNINGS
                       Please study these warnings very carefully!
================================================================================

WARNING: Gradients needed for Numerical Frequencies
  ===> : Setting RunTyp to EnGrad

WARNING: The environment variable RSH_COMMAND is not set!
  ===> : All Displacements for the Numerical Hessian or Gradient calculation
         will be started on localhost

INFO   : the flag for use of the SHARK integral package has been found!

================================================================================
                                       INPUT FILE
================================================================================
NAME = HCN_90.inp
|  1> ! PAL5 PBE0 NumFreq
|  2> %method
|  3>         method DFT
|  4>         runtyp Energy
|  5> end
|  6> %basis
|  7>         basis "def2-TZVP"
|  8> end
|  9> %coords
| 10>         CTyp xyz
| 11>         Charge 0
| 12>         Mult 1
| 13>         Units Angs
| 14>         coords
| 15> 	#90
| 16> 	C     -1.011290    0.960957    0.000001
| 17> 	N     -1.007970    0.960795   -1.157147
| 18> 	H     -2.068270    1.013340    0.000003
| 19> 	end
| 20> end
| 21> %eprnmr
| 22>         NMRShielding 1
| 23>         Nuclei = all N {shift}
| 24>         Nuclei = all C {shift}
| 25>         Nuclei = all H {shift}
| 26> endd                         ****END OF INPUT****
================================================================================

                     *******************************
                     * Energy+Gradient Calculation *
                     *******************************

---------------------------------
CARTESIAN COORDINATES (ANGSTROEM)
---------------------------------
  C     -1.011290    0.960957    0.000001
  N     -1.007970    0.960795   -1.157147
  H     -2.068270    1.013340    0.000003

----------------------------
CARTESIAN COORDINATES (A.U.)
----------------------------
  NO LB      ZA    FRAG     MASS         X           Y           Z
   0 C     6.0000    0    12.011   -1.911061    1.815946    0.000002
   1 N     7.0000    0    14.007   -1.904787    1.815639   -2.186691
   2 H     1.0000    0     1.008   -3.908464    1.914935    0.000006

--------------------------------
INTERNAL COORDINATES (ANGSTROEM)
--------------------------------
 C      0   0   0     0.000000000000     0.00000000     0.00000000
 N      1   0   0     1.157152774074     0.00000000     0.00000000
 H      1   2   0     1.058277231680    90.16469201     0.00000000

---------------------------
INTERNAL COORDINATES (A.U.)
---------------------------
 C      0   0   0     0.000000000000     0.00000000     0.00000000
 N      1   0   0     2.186701838108     0.00000000     0.00000000
 H      1   2   0     1.999854141640    90.16469201     0.00000000

---------------------
BASIS SET INFORMATION
---------------------
There are 3 groups of distinct atoms

 Group   1 Type C   : 11s6p2d1f contracted to 5s3p2d1f pattern {62111/411/11/1}
 Group   2 Type N   : 11s6p2d1f contracted to 5s3p2d1f pattern {62111/411/11/1}
 Group   3 Type H   : 5s1p contracted to 3s1p pattern {311/1}

Atom   0C    basis set group =>   1
Atom   1N    basis set group =>   2
Atom   2H    basis set group =>   3
---------------------------------
AUXILIARY/J BASIS SET INFORMATION
---------------------------------
There are 3 groups of distinct atoms

 Group   1 Type C   : 12s5p4d2f1g contracted to 6s4p3d1f1g pattern {711111/2111/211/2/1}
 Group   2 Type N   : 12s5p4d2f1g contracted to 6s4p3d1f1g pattern {711111/2111/211/2/1}
 Group   3 Type H   : 5s2p1d contracted to 3s1p1d pattern {311/2/1}

Atom   0C    basis set group =>   1
Atom   1N    basis set group =>   2
Atom   2H    basis set group =>   3


           ************************************************************
           *        Program running with 5 parallel MPI-processes     *
           *              working on a common directory               *
           ************************************************************
------------------------------------------------------------------------------
                           ORCA GTO INTEGRAL CALCULATION
                           -- RI-GTO INTEGRALS CHOSEN --
------------------------------------------------------------------------------
------------------------------------------------------------------------------
                   ___                                                        
                  /   \      - P O W E R E D   B Y -                         
                 /     \                                                     
                 |  |  |   _    _      __       _____    __    __             
                 |  |  |  | |  | |    /  \     |  _  \  |  |  /  |          
                  \  \/   | |  | |   /    \    | | | |  |  | /  /          
                 / \  \   | |__| |  /  /\  \   | |_| |  |  |/  /          
                |  |  |   |  __  | /  /__\  \  |    /   |      \           
                |  |  |   | |  | | |   __   |  |    \   |  |\   \          
                \     /   | |  | | |  |  |  |  | |\  \  |  | \   \       
                 \___/    |_|  |_| |__|  |__|  |_| \__\ |__|  \__/        
                                                                              
                      - O R C A' S   B I G   F R I E N D -                    
                                      &                                       
                       - I N T E G R A L  F E E D E R -                       
                                                                              
 v1 FN, 2020, v2 2021                                                         
------------------------------------------------------------------------------


Reading SHARK input file HCN_90.SHARKINP.tmp ... ok
----------------------
SHARK INTEGRAL PACKAGE
----------------------

Number of atoms                             ...      3
Number of basis functions                   ...     68
Number of shells                            ...     26
Maximum angular momentum                    ...      3
Integral batch strategy                     ... SHARK/LIBINT Hybrid
RI-J (if used) integral strategy            ... SPLIT-RIJ (Revised 2003 algorithm where possible)
Printlevel                                  ...      1
Contraction scheme used                     ... SEGMENTED contraction
Coulomb Range Separation                    ... NOT USED
Exchange Range Separation                   ... NOT USED
Finite Nucleus Model                        ... NOT USED
Auxiliary Coulomb fitting basis             ... AVAILABLE
   # of basis functions in Aux-J            ...    109
   # of shells in Aux-J                     ...     35
   Maximum angular momentum in Aux-J        ...      4
Auxiliary J/K fitting basis                 ... NOT available
Auxiliary Correlation fitting basis         ... NOT available
Auxiliary 'external' fitting basis          ... NOT available
Integral threshold                          ...     2.500000e-11
Primitive cut-off                           ...     2.500000e-12
Primitive pair pre-selection threshold      ...     2.500000e-12

Calculating pre-screening integrals         ... done (  0.0 sec) Dimension = 26
Organizing shell pair data                  ... done (  0.0 sec)
Shell pair information
Total number of shell pairs                 ...       351
Shell pairs after pre-screening             ...       350
Total number of primitive shell pairs       ...      1128
Primitive shell pairs kept                  ...      1034
          la=0 lb=0:     90 shell pairs
          la=1 lb=0:     91 shell pairs
          la=1 lb=1:     28 shell pairs
          la=2 lb=0:     52 shell pairs
          la=2 lb=1:     28 shell pairs
          la=2 lb=2:     10 shell pairs
          la=3 lb=0:     26 shell pairs
          la=3 lb=1:     14 shell pairs
          la=3 lb=2:      8 shell pairs
          la=3 lb=3:      3 shell pairs

Calculating one electron integrals          ... done (  0.0 sec)
Calculating RI/J V-Matrix + Cholesky decomp.... done (  0.0 sec)
Calculating Nuclear repulsion               ... done (  0.0 sec) ENN=     24.566092744792 Eh

SHARK setup successfully completed in   0.1 seconds

Maximum memory used throughout the entire GTOINT-calculation: 14.0 MB


           ************************************************************
           *        Program running with 5 parallel MPI-processes     *
           *              working on a common directory               *
           ************************************************************
-------------------------------------------------------------------------------
                                 ORCA SCF
-------------------------------------------------------------------------------

------------
SCF SETTINGS
------------
Hamiltonian:
 Density Functional     Method          .... DFT(GTOs)
 Exchange Functional    Exchange        .... PBE
   PBE kappa parameter   XKappa         ....  0.804000
   PBE mue parameter    XMuePBE         ....  0.219520
 Correlation Functional Correlation     .... PBE
   PBE beta parameter  CBetaPBE         ....  0.066725
 LDA part of GGA corr.  LDAOpt          .... PW91-LDA
 Gradients option       PostSCFGGA      .... off
 Hybrid DFT is turned on
   Fraction HF Exchange ScalHFX         ....  0.250000
   Scaling of DF-GGA-X  ScalDFX         ....  0.750000
   Scaling of DF-GGA-C  ScalDFC         ....  1.000000
   Scaling of DF-LDA-C  ScalLDAC        ....  1.000000
   Perturbative correction              ....  0.000000
   Density functional embedding theory  .... OFF
   NL short-range parameter             ....  6.900000
 RI-approximation to the Coulomb term is turned on
   Number of AuxJ basis functions       .... 109
   RIJ-COSX (HFX calculated with COS-X)).... on


General Settings:
 Integral files         IntName         .... HCN_90
 Hartree-Fock type      HFTyp           .... RHF
 Total Charge           Charge          ....    0
 Multiplicity           Mult            ....    1
 Number of Electrons    NEL             ....   14
 Basis Dimension        Dim             ....   68
 Nuclear Repulsion      ENuc            ....     24.5660927448 Eh

Convergence Acceleration:
 DIIS                   CNVDIIS         .... on
   Start iteration      DIISMaxIt       ....    12
   Startup error        DIISStart       ....  0.200000
   # of expansion vecs  DIISMaxEq       ....     5
   Bias factor          DIISBfac        ....   1.050
   Max. coefficient     DIISMaxC        ....  10.000
 Trust-Rad. Augm. Hess. CNVTRAH         .... auto
   Auto Start mean grad. ratio tolernc. ....  1.125000
   Auto Start start iteration           ....    20
   Auto Start num. interpolation iter.  ....    10
   Max. Number of Micro iterations      ....    16
   Max. Number of Macro iterations      .... Maxiter - #DIIS iter
   Number of Davidson start vectors     ....     2
   Converg. threshold I  (grad. norm)   ....   1.000e-05
   Converg. threshold II (energy diff.) ....   1.000e-08
   Grad. Scal. Fac. for Micro threshold ....   0.100
   Minimum threshold for Micro iter.    ....   0.010
   NR start threshold (gradient norm)   ....   0.001
   Initial trust radius                 ....   0.400
   Minimum AH scaling param. (alpha)    ....   1.000
   Maximum AH scaling param. (alpha)    .... 1000.000
   Orbital update algorithm             .... Taylor
   White noise on init. David. guess    .... on
   Maximum white noise                  ....   0.010
   Quad. conv. algorithm                .... NR
 SOSCF                  CNVSOSCF        .... on
   Start iteration      SOSCFMaxIt      ....   150
   Startup grad/error   SOSCFStart      ....  0.003300
 Level Shifting         CNVShift        .... on
   Level shift para.    LevelShift      ....    0.2500
   Turn off err/grad.   ShiftErr        ....    0.0010
 Zerner damping         CNVZerner       .... off
 Static damping         CNVDamp         .... on
   Fraction old density DampFac         ....    0.7000
   Max. Damping (<1)    DampMax         ....    0.9800
   Min. Damping (>=0)   DampMin         ....    0.0000
   Turn off err/grad.   DampErr         ....    0.1000
 Fernandez-Rico         CNVRico         .... off

SCF Procedure:
 Maximum # iterations   MaxIter         ....   125
 SCF integral mode      SCFMode         .... Direct
   Integral package                     .... SHARK and LIBINT hybrid scheme
 Reset frequency        DirectResetFreq ....    20
 Integral Threshold     Thresh          ....  2.500e-11 Eh
 Primitive CutOff       TCut            ....  2.500e-12 Eh

Convergence Tolerance:
 Convergence Check Mode ConvCheckMode   .... Total+1el-Energy
 Convergence forced     ConvForced      .... 0
 Energy Change          TolE            ....  1.000e-08 Eh
 1-El. energy change                    ....  1.000e-05 Eh
 Orbital Gradient       TolG            ....  1.000e-05
 Orbital Rotation angle TolX            ....  1.000e-05
 DIIS Error             TolErr          ....  5.000e-07


Diagonalization of the overlap matrix:
Smallest eigenvalue                        ... 6.434e-04
Time for diagonalization                   ...    0.001 sec
Threshold for overlap eigenvalues          ... 1.000e-08
Number of eigenvalues below threshold      ... 0
Time for construction of square roots      ...    0.005 sec
Total time needed                          ...    0.006 sec

Time for model grid setup =    0.013 sec

------------------------------
INITIAL GUESS: MODEL POTENTIAL
------------------------------
Loading Hartree-Fock densities                     ... done
Calculating cut-offs                               ... done
Initializing the effective Hamiltonian             ... done
Setting up the integral package (SHARK)            ... done
Starting the Coulomb interaction                   ... done (   0.0 sec)
Reading the grid                                   ... done
Mapping shells                                     ... done
Starting the XC term evaluation                    ... done (   0.0 sec)
  promolecular density results
     # of electrons  =     13.999499201
     EX              =    -11.856200862
     EC              =     -0.436200092
     EX+EC           =    -12.292400953
Transforming the Hamiltonian                       ... done (   0.0 sec)
Diagonalizing the Hamiltonian                      ... done (   0.0 sec)
Back transforming the eigenvectors                 ... done (   0.0 sec)
Now organizing SCF variables                       ... done
                      ------------------
                      INITIAL GUESS DONE (   0.0 sec)
                      ------------------
-------------------
DFT GRID GENERATION
-------------------

General Integration Accuracy     IntAcc      ... 4.388
Radial Grid Type                 RadialGrid  ... OptM3 with GC (2021)
Angular Grid (max. ang.)         AngularGrid ... 4 (Lebedev-302)
Angular grid pruning method      GridPruning ... 4 (adaptive)
Weight generation scheme         WeightScheme... Becke
Basis function cutoff            BFCut       ... 1.0000e-11
Integration weight cutoff        WCut        ... 1.0000e-14
Angular grids for H and He will be reduced by one unit
Partially contracted basis set               ... off
Rotationally invariant grid construction     ... off

Total number of grid points                  ...    15546
Total number of batches                      ...      245
Average number of points per batch           ...       63
Average number of grid points per atom       ...     5182
Time for grid setup =    0.060 sec

--------------------
COSX GRID GENERATION
--------------------

GRIDX 1
-------
General Integration Accuracy     IntAcc      ... 3.816
Radial Grid Type                 RadialGrid  ... OptM3 with GC (2021)
Angular Grid (max. ang.)         AngularGrid ... 1 (Lebedev-50)
Angular grid pruning method      GridPruning ... 4 (adaptive)
Weight generation scheme         WeightScheme... Becke
Basis function cutoff            BFCut       ... 1.0000e-11
Integration weight cutoff        WCut        ... 1.0000e-14
Angular grids for H and He will be reduced by one unit
Partially contracted basis set               ... on
Rotationally invariant grid construction     ... off

Total number of grid points                  ...     1960
Total number of batches                      ...       33
Average number of points per batch           ...       59
Average number of grid points per atom       ...      653
UseSFitting                                  ... on

GRIDX 2
-------
General Integration Accuracy     IntAcc      ... 4.020
Radial Grid Type                 RadialGrid  ... OptM3 with GC (2021)
Angular Grid (max. ang.)         AngularGrid ... 2 (Lebedev-110)
Angular grid pruning method      GridPruning ... 4 (adaptive)
Weight generation scheme         WeightScheme... Becke
Basis function cutoff            BFCut       ... 1.0000e-11
Integration weight cutoff        WCut        ... 1.0000e-14
Angular grids for H and He will be reduced by one unit
Partially contracted basis set               ... on
Rotationally invariant grid construction     ... off

Total number of grid points                  ...     4547
Total number of batches                      ...       72
Average number of points per batch           ...       63
Average number of grid points per atom       ...     1516
UseSFitting                                  ... on

GRIDX 3
-------
General Integration Accuracy     IntAcc      ... 4.338
Radial Grid Type                 RadialGrid  ... OptM3 with GC (2021)
Angular Grid (max. ang.)         AngularGrid ... 3 (Lebedev-194)
Angular grid pruning method      GridPruning ... 4 (adaptive)
Weight generation scheme         WeightScheme... Becke
Basis function cutoff            BFCut       ... 1.0000e-11
Integration weight cutoff        WCut        ... 1.0000e-14
Angular grids for H and He will be reduced by one unit
Partially contracted basis set               ... on
Rotationally invariant grid construction     ... off

Total number of grid points                  ...    10172
Total number of batches                      ...      160
Average number of points per batch           ...       63
Average number of grid points per atom       ...     3391
UseSFitting                                  ... on

Time for X-Grid setup             =    0.098 sec

--------------
SCF ITERATIONS
--------------
ITER       Energy         Delta-E        Max-DP      RMS-DP      [F,P]     Damp
               ***  Starting incremental Fock matrix formation  ***
  0    -93.2279131806   0.000000000000 0.02692391  0.00149320  0.1679739 0.7000
  1    -93.2497543753  -0.021841194619 0.01907283  0.00104786  0.0739243 0.7000
                               ***Turning on DIIS***
  2    -93.2584825639  -0.008728188613 0.04245134  0.00185535  0.0401249 0.0000
  3    -93.2732193412  -0.014736777286 0.01371092  0.00080416  0.0382758 0.0000
  4    -93.2755200720  -0.002300730837 0.00596680  0.00033025  0.0172739 0.0000
                      *** Initiating the SOSCF procedure ***
                           *** Shutting down DIIS ***
                      *** Re-Reading the Fockian *** 
                      *** Removing any level shift *** 
ITER      Energy       Delta-E        Grad      Rot      Max-DP    RMS-DP
  5    -93.27592788  -0.0004078041  0.000406  0.000406  0.001644  0.000077
               *** Restarting incremental Fock matrix formation ***
  6    -93.27593089  -0.0000030156  0.000324  0.001117  0.000749  0.000040
  7    -93.27593083   0.0000000648  0.000525  0.000643  0.000357  0.000019
  8    -93.27593188  -0.0000010494  0.000104  0.000182  0.000230  0.000012
  9    -93.27593195  -0.0000000716  0.000032  0.000041  0.000023  0.000002
 10    -93.27593197  -0.0000000171  0.000005  0.000010  0.000012  0.000001
                  ***Gradient check signals convergence***
              ***Rediagonalizing the Fockian in SOSCF/NRSCF***

               *****************************************************
               *                     SUCCESS                       *
               *           SCF CONVERGED AFTER  11 CYCLES          *
               *****************************************************

Old exchange energy                            =     -3.009000688 Eh
New exchange energy                            =     -3.009008425 Eh
Exchange energy change after final integration =     -0.000007737 Eh
Total energy after final integration           =    -93.275939702 Eh
Final COS-X integration done in                =     0.106 sec

----------------
TOTAL SCF ENERGY
----------------

Total Energy       :          -93.27593970 Eh           -2538.16736 eV

Components:
Nuclear Repulsion  :           24.56609274 Eh             668.47737 eV
Electronic Energy  :         -117.84203245 Eh           -3206.64473 eV
One Electron Energy:         -173.86342787 Eh           -4731.06440 eV
Two Electron Energy:           56.02139543 Eh            1524.41967 eV
Max COSX asymmetry :            0.00000146 Eh               0.00004 eV

Virial components:
Potential Energy   :         -186.35161248 Eh           -5070.88517 eV
Kinetic Energy     :           93.07567278 Eh            2532.71782 eV
Virial Ratio       :            2.00215166


DFT components:
N(Alpha)           :        6.999998267696 electrons
N(Beta)            :        6.999998267696 electrons
N(Total)           :       13.999996535392 electrons
E(X)               :       -9.034000367611 Eh       
E(C)               :       -0.442624662177 Eh       
E(XC)              :       -9.476625029788 Eh       
DFET-embed. en.    :        0.000000000000 Eh       

---------------
SCF CONVERGENCE
---------------

  Last Energy change         ...   -4.8028e-10  Tolerance :   1.0000e-08
  Last MAX-Density change    ...    6.6613e-16  Tolerance :   1.0000e-07
  Last RMS-Density change    ...    1.9879e-17  Tolerance :   5.0000e-09
  Last Orbital Gradient      ...    1.0514e-06  Tolerance :   1.0000e-05
  Last Orbital Rotation      ...    2.2951e-06  Tolerance :   1.0000e-05

             **** THE GBW FILE WAS UPDATED (HCN_90.gbw) ****
             **** DENSITY HCN_90.scfp WAS UPDATED ****
             **** ENERGY FILE WAS UPDATED (HCN_90.en.tmp) ****
             **** THE GBW FILE WAS UPDATED (HCN_90.gbw) ****
             **** DENSITY HCN_90.scfp WAS UPDATED ****
----------------
ORBITAL ENERGIES
----------------

  NO   OCC          E(Eh)            E(eV) 
   0   2.0000     -14.445016      -393.0689 
   1   2.0000     -10.271241      -279.4947 
   2   2.0000      -1.004569       -27.3357 
   3   2.0000      -0.578102       -15.7309 
   4   2.0000      -0.450615       -12.2619 
   5   2.0000      -0.404947       -11.0192 
   6   2.0000      -0.367769       -10.0075 
   7   0.0000      -0.078168        -2.1271 
   8   0.0000       0.010032         0.2730 
   9   0.0000       0.080095         2.1795 
  10   0.0000       0.151288         4.1167 
  11   0.0000       0.204364         5.5610 
  12   0.0000       0.224737         6.1154 
  13   0.0000       0.227688         6.1957 
  14   0.0000       0.320791         8.7292 
  15   0.0000       0.391233        10.6460 
  16   0.0000       0.425597        11.5811 
  17   0.0000       0.459139        12.4938 
  18   0.0000       0.547577        14.9003 
  19   0.0000       0.587113        15.9761 
  20   0.0000       0.659817        17.9545 
  21   0.0000       0.787815        21.4375 
  22   0.0000       0.843974        22.9657 
  23   0.0000       0.877091        23.8669 
  24   0.0000       1.120850        30.4999 
  25   0.0000       1.149965        31.2921 
  26   0.0000       1.150478        31.3061 
  27   0.0000       1.252108        34.0716 
  28   0.0000       1.324432        36.0396 
  29   0.0000       1.396313        37.9956 
  30   0.0000       1.488773        40.5116 
  31   0.0000       1.495410        40.6922 
  32   0.0000       1.525580        41.5131 
  33   0.0000       1.793599        48.8063 
  34   0.0000       1.807261        49.1781 
  35   0.0000       1.985366        54.0245 
  36   0.0000       2.042389        55.5762 
  37   0.0000       2.114849        57.5480 
  38   0.0000       2.203965        59.9729 
  39   0.0000       2.291557        62.3564 
  40   0.0000       2.536528        69.0224 
  41   0.0000       2.715461        73.8914 
  42   0.0000       2.885464        78.5175 
  43   0.0000       2.900961        78.9392 
  44   0.0000       2.952465        80.3407 
  45   0.0000       3.005995        81.7973 
  46   0.0000       3.035020        82.5871 
  47   0.0000       3.117392        84.8286 
  48   0.0000       3.229357        87.8753 
  49   0.0000       3.339216        90.8647 
  50   0.0000       3.376583        91.8815 
  51   0.0000       3.461216        94.1845 
  52   0.0000       3.900382       106.1348 
  53   0.0000       3.925417       106.8160 
  54   0.0000       3.976836       108.2152 
  55   0.0000       4.126900       112.2987 
  56   0.0000       4.411559       120.0446 
  57   0.0000       4.538672       123.5035 
  58   0.0000       4.565533       124.2345 
  59   0.0000       4.609037       125.4183 
  60   0.0000       4.844638       131.8293 
  61   0.0000       4.943186       134.5109 
  62   0.0000       5.324306       144.8817 
  63   0.0000       5.408576       147.1748 
  64   0.0000       5.521970       150.2604 
  65   0.0000       5.712808       155.4534 
  66   0.0000      22.118592       601.8775 
  67   0.0000      31.868609       867.1889 

                    ********************************
                    * MULLIKEN POPULATION ANALYSIS *
                    ********************************

-----------------------
MULLIKEN ATOMIC CHARGES
-----------------------
   0 C :   -0.261229
   1 N :    0.028385
   2 H :    0.232844
Sum of atomic charges:   -0.0000000

--------------------------------
MULLIKEN REDUCED ORBITAL CHARGES
--------------------------------
  0 C s       :     3.562711  s :     3.562711
      pz      :     1.024398  p :     2.597565
      px      :     0.789992
      py      :     0.783175
      dz2     :     0.027690  d :     0.093420
      dxz     :     0.025658
      dyz     :     0.032902
      dx2y2   :     0.006436
      dxy     :     0.000734
      f0      :     0.001089  f :     0.007534
      f+1     :     0.002203
      f-1     :     0.003602
      f+2     :     0.000064
      f-2     :     0.000004
      f+3     :     0.000499
      f-3     :     0.000072
  1 N s       :     3.719128  s :     3.719128
      pz      :     1.259591  p :     3.200705
      px      :     0.787568
      py      :     1.153547
      dz2     :     0.008970  d :     0.049470
      dxz     :     0.022262
      dyz     :     0.017594
      dx2y2   :     0.000567
      dxy     :     0.000077
      f0      :     0.000049  f :     0.002313
      f+1     :     0.001155
      f-1     :     0.001023
      f+2     :     0.000056
      f-2     :     0.000003
      f+3     :     0.000018
      f-3     :     0.000008
  2 H s       :     0.734342  s :     0.734342
      pz      :     0.011260  p :     0.032814
      px      :     0.015094
      py      :     0.006460


                     *******************************
                     * LOEWDIN POPULATION ANALYSIS *
                     *******************************

----------------------
LOEWDIN ATOMIC CHARGES
----------------------
   0 C :   -0.304160
   1 N :    0.114917
   2 H :    0.189243

-------------------------------
LOEWDIN REDUCED ORBITAL CHARGES
-------------------------------
  0 C s       :     3.114095  s :     3.114095
      pz      :     1.255070  p :     2.881897
      px      :     0.848841
      py      :     0.777987
      dz2     :     0.135919  d :     0.261140
      dxz     :     0.043197
      dyz     :     0.065013
      dx2y2   :     0.016595
      dxy     :     0.000416
      f0      :     0.017994  f :     0.047028
      f+1     :     0.008585
      f-1     :     0.018102
      f+2     :     0.000023
      f-2     :     0.000002
      f+3     :     0.002271
      f-3     :     0.000051
  1 N s       :     3.340898  s :     3.340898
      pz      :     1.553875  p :     3.407568
      px      :     0.762062
      py      :     1.091631
      dz2     :     0.051041  d :     0.121174
      dxz     :     0.042688
      dyz     :     0.026443
      dx2y2   :     0.000912
      dxy     :     0.000091
      f0      :     0.006712  f :     0.015443
      f+1     :     0.005102
      f-1     :     0.003490
      f+2     :     0.000098
      f-2     :     0.000009
      f+3     :     0.000026
      f-3     :     0.000006
  2 H s       :     0.721765  s :     0.721765
      pz      :     0.031577  p :     0.088993
      px      :     0.041043
      py      :     0.016372


                      *****************************
                      * MAYER POPULATION ANALYSIS *
                      *****************************

  NA   - Mulliken gross atomic population
  ZA   - Total nuclear charge
  QA   - Mulliken gross atomic charge
  VA   - Mayer's total valence
  BVA  - Mayer's bonded valence
  FA   - Mayer's free valence

  ATOM       NA         ZA         QA         VA         BVA        FA
  0 C      6.2612     6.0000    -0.2612     3.4312     3.4312    -0.0000
  1 N      6.9716     7.0000     0.0284     2.8013     2.8013    -0.0000
  2 H      0.7672     1.0000     0.2328     0.9738     0.9738    -0.0000

  Mayer bond orders larger than 0.100000
B(  0-C ,  1-N ) :   2.6294 B(  0-C ,  2-H ) :   0.8019 B(  1-N ,  2-H ) :   0.1719 


-------
TIMINGS
-------

Total SCF time: 0 days 0 hours 0 min 1 sec 

Total time                  ....       1.962 sec
Sum of individual times     ....       1.807 sec  ( 92.1%)

Fock matrix formation       ....       1.540 sec  ( 78.5%)
  Split-RI-J                ....       0.143 sec  (  9.3% of F)
  Chain of spheres X        ....       0.726 sec  ( 47.1% of F)
  XC integration            ....       0.371 sec  ( 24.1% of F)
    Basis function eval.    ....       0.049 sec  ( 13.2% of XC)
    Density eval.           ....       0.035 sec  (  9.4% of XC)
    XC-Functional eval.     ....       0.017 sec  (  4.6% of XC)
    XC-Potential eval.      ....       0.044 sec  ( 11.9% of XC)
Diagonalization             ....       0.026 sec  (  1.3%)
Density matrix formation    ....       0.000 sec  (  0.0%)
Population analysis         ....       0.009 sec  (  0.5%)
Initial guess               ....       0.023 sec  (  1.2%)
Orbital Transformation      ....       0.000 sec  (  0.0%)
Orbital Orthonormalization  ....       0.000 sec  (  0.0%)
DIIS solution               ....       0.015 sec  (  0.8%)
SOSCF solution              ....       0.023 sec  (  1.2%)
Grid generation             ....       0.171 sec  (  8.7%)

Maximum memory used throughout the entire SCF-calculation: 58.4 MB

-------------------------   --------------------
FINAL SINGLE POINT ENERGY       -93.275939702297
-------------------------   --------------------



           ************************************************************
           *        Program running with 5 parallel MPI-processes     *
           *              working on a common directory               *
           ************************************************************
------------------------------------------------------------------------------
                         ORCA SCF GRADIENT CALCULATION
------------------------------------------------------------------------------

 ... reading COSX grid (gridx3)
Gradient of the Kohn-Sham DFT energy:
Kohn-Sham wavefunction type      ... RKS
Hartree-Fock exchange scaling    ...    0.250
Number of operators              ...    1
Number of atoms                  ...    3
Basis set dimensions             ...   68
Integral neglect threshold       ... 2.5e-11
Integral primitive cutoff        ... 2.5e-12
SHARK Integral package           ... ON

Nuc. rep. gradient       (SHARK) ... done (  0.0 sec)
HCore & Overlap gradient (SHARK) ... done (  0.0 sec)
RI-J gradient            (SHARK) ... done (  0.1 sec)
COSX-gradient                    ... done (  0.1 sec)
Exchange-correlation gradient    ... done

------------------
CARTESIAN GRADIENT
------------------

   1   C   :   -0.018964828    0.000930002   -0.004656328
   2   N   :   -0.027505542    0.001352046    0.034685286
   3   H   :    0.046464765   -0.002304049   -0.030010895

Difference to translation invariance:
           :   -0.0000056047   -0.0000220006    0.0000180634

Difference to rotation invariance:
           :    0.0000079383    0.0000194108    0.0000548736

Norm of the cartesian gradient     ...    0.0735431831
RMS gradient                       ...    0.0245143944
MAX gradient                       ...    0.0464647649

-------
TIMINGS
-------

Total SCF gradient time            ...        0.367 sec

One electron gradient       ....       0.004 sec  (  1.1%)
RI-J Coulomb gradient       ....       0.055 sec  ( 15.0%)
COSX gradient               ....       0.137 sec  ( 37.3%)
XC gradient                 ....       0.065 sec  ( 17.7%)

Maximum memory used throughout the entire SCFGRAD-calculation: 33.5 MB

                            ***************************************
                            *     ORCA property calculations      *
                            ***************************************

                                    ---------------------
                                    Active property flags
                                    ---------------------
   (+) Dipole Moment
   (+) Chemical Shifts
   (+) Nuclear properties (Hyperfine,Quadrupole)


------------------------------------------------------------------------------
                       ORCA ELECTRIC PROPERTIES CALCULATION
------------------------------------------------------------------------------

Dipole Moment Calculation                       ... on
Quadrupole Moment Calculation                   ... off
Polarizability Calculation                      ... off
GBWName                                         ... HCN_90.gbw
Electron density                                ... HCN_90.scfp
The origin for moment calculation is the CENTER OF MASS  = (-1.982307,  1.819479 -1.133314)

-------------
DIPOLE MOMENT
-------------
                                X             Y             Z
Electronic contribution:      0.48484      -0.02403      -0.25158
Nuclear contribution   :     -0.95604       0.04738       0.55958
                        -----------------------------------------
Total Dipole Moment    :     -0.47120       0.02335       0.30800
                        -----------------------------------------
Magnitude (a.u.)       :      0.56342
Magnitude (Debye)      :      1.43210



--------------------
Rotational spectrum 
--------------------
 
Rotational constants in cm-1:    16.285116     1.854484     1.664893 
Rotational constants in MHz : 488215.493717 55596.042238 49912.235058 

 Dipole components along the rotational axes: 
x,y,z [a.u.] :     0.346068     0.444609     0.000000 
x,y,z [Debye]:     0.879636     1.130106     0.000000 

 


           ************************************************************
           *        Program running with 5 parallel MPI-processes     *
           *              working on a common directory               *
           ************************************************************
------------------------------------------------------------------------------
                                ORCA EPR/NMR CALCULATION
------------------------------------------------------------------------------

GBWName                      ... HCN_90.gbw
Electron density             ... HCN_90.scfp
Spin density                 ... HCN_90.scfr
Treatment of gauge           ... GIAO (approximations 1/2el = 0,0)
Details of the CP(SCF) procedure:
       Solver   = POPLE   
       MaxIter  =    64   
       Tolerance=    1.000e-04
       COSX Grid=     1   
       Op-0     =   0-  6 =>   7- 67
Multiplicity                 ... 1
g-tensor                     ... 0
NMR chemical shifts          ... 1
NMR spin-spin couplings      ... 0
NMR spectrum                 ... 0
Number of nuclei for epr/nmr ... 3
   Nucleus:   1N 
       Hyperfine : Isotope=   14 I=   1.000 P=  38.568
       Quadrupole: Isotope=   14 I=   1.000 Q=   0.020
       Spin-Orbit: Zeff=   4.550
       Nuclear Spin-Spin: Gn=   0.000
       EPRNMR Input: 
       rho(0)=N f(grad)=N a(iso)=N a(dip)=N a(orb)=N sigma(nmr)=Y spin-spin(nmr)=all-N,DSO-N,PSO-N,FC-N,SD-N
   Nucleus:   0C 
       Hyperfine : Isotope=   13 I=   0.500 P= 134.190
       Quadrupole: Isotope=   13 I=   0.500 Q=   0.000
       Spin-Orbit: Zeff=   3.600
       Nuclear Spin-Spin: Gn=   0.000
       EPRNMR Input: 
       rho(0)=N f(grad)=N a(iso)=N a(dip)=N a(orb)=N sigma(nmr)=Y spin-spin(nmr)=all-N,DSO-N,PSO-N,FC-N,SD-N
   Nucleus:   2H 
       Hyperfine : Isotope=    1 I=   0.500 P= 533.551
       Quadrupole: Isotope=    2 I=   1.000 Q=   0.003
       Spin-Orbit: Zeff=   1.000
       Nuclear Spin-Spin: Gn=   0.000
       EPRNMR Input: 
       rho(0)=N f(grad)=N a(iso)=N a(dip)=N a(orb)=N sigma(nmr)=Y spin-spin(nmr)=all-N,DSO-N,PSO-N,FC-N,SD-N
Forming RHS of the CP-SCF equations         ... 
Calculating right hand sides for GIAO treatment        ... 
  Entering RightHandSide GIAO. ScalHFX=    0.2500 NeedHFX=1
     -> 1-electron GIAO integrals will be done analytically
     -> RIJCOSX used in SCF. Same chosen for GIAO calculation.
     Making grid for GIAO integrations   ...

GRID GIAO
---------

General Integration Accuracy     IntAcc      ... 4.388
Radial Grid Type                 RadialGrid  ... OptM3 with GC (2021)
Angular Grid (max. ang.)         AngularGrid ... 4 (Lebedev-302)
Angular grid pruning method      GridPruning ... 4 (adaptive)
Weight generation scheme         WeightScheme... Becke
Basis function cutoff            BFCut       ... 1.0000e-11
Integration weight cutoff        WCut        ... 1.0000e-14
Angular grids for H and He will be reduced by one unit
Partially contracted basis set               ... off
Rotationally invariant grid construction     ... off

Total number of grid points                  ...    15546
Total number of batches                      ...      245
Average number of points per batch           ...       63
Average number of grid points per atom       ...     5182

  One-electron GIAO integrals (SHARK)     ... done
  Calculating G(B)[P]                     ... (RI-J: SHARK-ok) (COSX-ok) (add-J+K:ok) => dG/dB done
  DFT XC-terms                            ... done
  Extracting occupied and virtual blocks  ... 
  Operator  0  NO=   7 NV=  61 
  Transforming and RHS contribution       ... done
  Adding eps_i * S(B)_ai terms            ... done
  Projecting overlap derivatives          ... done
  Building G[dS/dB_ij] (COSX)             ... done
  Transforming to MO basis                ... done
  Summing G[dS/dB_ij] into RHS contribs.  ... done

  GIAO profiling information: 
    Total GIAO time               ...       0.3 sec
       GIAO 1-electron integrals  ...       0.0 sec (  0.9%)
       GIAO G(dS/dB) terms        ...       0.0 sec ( 14.8%)
       GIAO RI-J                  ...       0.0 sec (  6.4%)
       GIAO COSX                  ...       0.1 sec ( 24.2%)
       GIAO XC-terms              ...       0.1 sec ( 35.2%)

  GIAO right hand side done


------------------------------------------------------------------------------
                           ORCA CP-SCF CALCULATION
------------------------------------------------------------------------------

Input orbitals are from        ... HCN_90.gbw
Input Perturbation             ... HCN_90.pin.tmp
Wavefunction output            ... HCN_90.pout.tmp
Perturbation mode              ... Imaginary perturbation
Solver                         ... POPLE
Max. number of iterations      ... 64
Convergence tolerance          ... 1.000e-04
Integral handling              ... Direct
DFT GridXC                     ... 1
COSX GridX                     ... 1
COSX IntAccX                   ... 3.067
COSX Algorithm                 ... Auto
Number of perturbations        ... 3
Number of operators            ... 1
Orbital ranges used for CP-SCF:
 Operator 0:  Orbitals   0...  6  to   7... 67
Variables per perturbation     ... 427
DFT calculation                         ... on
XC functional terms                     ... off
Hybrid DFT                              ... on
   Exchange mixing (SCF)                ...  0.250
   Exchange mixing (CP-SCF)             ...  0.250
   GGA exch. scaling(SCF)               ...  0.750
   GGA exch. scaling (CP-SCF)           ...  0.750
   GGA corr. scaling (SCF)              ...  1.000
   GGA corr. scaling (CP-SCF)           ...  1.000

CP-SCF GRID
-----------

General Integration Accuracy     IntAcc      ... 3.467
Radial Grid Type                 RadialGrid  ... OptM3 with GC (2021)
Angular Grid (max. ang.)         AngularGrid ... 1 (Lebedev-50)
Angular grid pruning method      GridPruning ... 4 (adaptive)
Weight generation scheme         WeightScheme... Becke
Basis function cutoff            BFCut       ... 1.0000e-11
Integration weight cutoff        WCut        ... 1.0000e-14
Angular grids for H and He will be reduced by one unit
Partially contracted basis set               ... off
Rotationally invariant grid construction     ... off

Total number of grid points                  ...     2341
Total number of batches                      ...       38
Average number of points per batch           ...       61
Average number of grid points per atom       ...      780

CP-SCF GRIDX
------------

General Integration Accuracy     IntAcc      ... 3.067
Radial Grid Type                 RadialGrid  ... OptM3 with GC (2021)
Angular Grid (max. ang.)         AngularGrid ... 1 (Lebedev-50)
Angular grid pruning method      GridPruning ... 4 (adaptive)
Weight generation scheme         WeightScheme... Becke
Basis function cutoff            BFCut       ... 1.0000e-11
Integration weight cutoff        WCut        ... 1.0000e-14
Angular grids for H and He will be reduced by one unit
Partially contracted basis set               ... on
Rotationally invariant grid construction     ... off

Total number of grid points                  ...     1044
Total number of batches                      ...       18
Average number of points per batch           ...       58
Average number of grid points per atom       ...      348

Memory available               ... 1015.8 MB
Memory needed per perturbation ...   0.2 MB
Perturbations treated per batch... 3
Number of batches              ... 1
     CP-SCF ITERATION   0:   5.3574e-01 (   0.0 sec   0/  3 done)
     CP-SCF ITERATION   1:   1.7713e-02 (   0.0 sec   0/  3 done)
     CP-SCF ITERATION   2:   1.8302e-03 (   0.0 sec   0/  3 done)
     CP-SCF ITERATION   3:   1.8171e-04 (   0.0 sec   2/  3 done)
     CP-SCF ITERATION   4:   1.2372e-05 (   0.0 sec   3/  3 done)
                    *** THE CP-SCF HAS CONVERGED ***

Forming final perturbed densities           ... done
Transforming perturbed density to AO basis  ... done

Magnetic field perturbation calculated in  0.602 sec

---------------
CHEMICAL SHIFTS
---------------

Note: using conversion factor for au to ppm alpha^2/2 =   26.625677252 
GIAO: Analytic para- and diamagnetic shielding integrals (SHARK)       ...done
 --------------
 Nucleus   1N :
 --------------

Diamagnetic contribution to the shielding tensor (ppm) : 
           316.756         -0.267         1.806
            -0.053        315.655        -0.090
             1.207          2.030       336.979

Paramagnetic contribution to the shielding tensor (ppm): 
          -600.899        -18.729      -266.445
           -18.945       -982.267        13.190
           -67.956          1.290      -173.794

Total shielding tensor (ppm): 
          -284.143        -18.996      -264.639
           -18.998       -666.613        13.101
           -66.749          3.319       163.185


 Diagonalized sT*s matrix:
 
 sDSO           324.470          329.278          315.642  iso=     323.130
 sPSO          -240.396         -533.369         -983.195  iso=    -585.653
        ---------------  ---------------  ---------------
 Total           84.074         -204.090         -667.554  iso=    -262.523

 --------------
 Nucleus   0C :
 --------------

Diamagnetic contribution to the shielding tensor (ppm) : 
           259.983        -10.711         0.683
            -0.814        244.132        -0.034
            -4.564         -8.214       272.590

Paramagnetic contribution to the shielding tensor (ppm): 
          -389.581         15.978        20.317
             6.089       -267.683        -1.005
           -70.664         11.940        16.840

Total shielding tensor (ppm): 
          -129.599          5.267        21.000
             5.275        -23.551        -1.039
           -75.228          3.727       289.430


 Diagonalized sT*s matrix:
 
 sDSO           243.601          260.747          272.357  iso=     258.901
 sPSO          -266.890         -361.929          -11.605  iso=    -213.475
        ---------------  ---------------  ---------------
 Total          -23.290         -101.182          260.752  iso=      45.427

 --------------
 Nucleus   2H :
 --------------

Diamagnetic contribution to the shielding tensor (ppm) : 
            39.287         -8.259        -3.862
            -1.286         13.747         0.191
            -4.601          0.240        25.334

Paramagnetic contribution to the shielding tensor (ppm): 
           -20.760          8.790        -1.844
             1.815         15.436         0.091
            -1.564          0.066         0.945

Total shielding tensor (ppm): 
            18.528          0.531        -5.706
             0.529         29.182         0.282
            -6.165          0.306        26.279


 Diagonalized sT*s matrix:
 
 sDSO            32.817           13.342           32.210  iso=      26.123
 sPSO           -17.529           15.867           -2.718  iso=      -1.460
        ---------------  ---------------  ---------------
 Total           15.288           29.209           29.492  iso=      24.663



--------------------------------
CHEMICAL SHIELDING SUMMARY (ppm)
--------------------------------


  Nucleus  Element    Isotropic     Anisotropy
  -------  -------  ------------   ------------
      1       N         -262.523       -607.545 
      0       C           45.427        322.988 
      2       H           24.663          7.243 



Maximum memory used throughout the entire EPRNMR-calculation: 10.2 MB

----------------------------------------------------------------------------
                           ORCA NUMERICAL FREQUENCIES
                              (5-process run)
----------------------------------------------------------------------------

Number of atoms                ... 3
Central differences            ... used
Number of displacements        ... 18
Numerical increment            ... 5.000e-03 bohr
IR-spectrum generation         ... on
Raman-spectrum generation      ... off
Surface Crossing Hessian       ... off

The output will be reduced. Please look at the following files:
SCF program output             ... >HCN_90.lastscf
Integral program output        ... >HCN_90.lastint
Gradient program output        ... >HCN_90.lastgrad
Dipole moment program output   ... >HCN_90.lastmom
AutoCI program output          ... >HCN_90.lastautoci

	<< Calculating on displaced geometry   1 (of  18) >>
	<< Calculating on displaced geometry   2 (of  18) >>
	<< Calculating on displaced geometry   3 (of  18) >>
	<< Calculating on displaced geometry   4 (of  18) >>
	<< Calculating on displaced geometry   5 (of  18) >>
	<< Calculating on displaced geometry   7 (of  18) >>
	<< Calculating on displaced geometry   6 (of  18) >>
	<< Calculating on displaced geometry   9 (of  18) >>
	<< Calculating on displaced geometry   8 (of  18) >>
	<< Calculating on displaced geometry  10 (of  18) >>
	<< Calculating on displaced geometry  11 (of  18) >>
	<< Calculating on displaced geometry  12 (of  18) >>
	<< Calculating on displaced geometry  13 (of  18) >>
	<< Calculating on displaced geometry  15 (of  18) >>
	<< Calculating on displaced geometry  14 (of  18) >>
	<< Calculating on displaced geometry  16 (of  18) >>
	<< Calculating on displaced geometry  18 (of  18) >>
	<< Calculating on displaced geometry  17 (of  18) >>

-----------------------
VIBRATIONAL FREQUENCIES
-----------------------

Scaling factor for frequencies =  1.000000000 (already applied!)

   0:         0.00 cm**-1
   1:         0.00 cm**-1
   2:         0.00 cm**-1
   3:         0.00 cm**-1
   4:         0.00 cm**-1
   5:         0.00 cm**-1
   6:     -1152.04 cm**-1 ***imaginary mode***
   7:      2225.23 cm**-1
   8:      3536.61 cm**-1


------------
NORMAL MODES
------------

These modes are the cartesian displacements weighted by the diagonal matrix
M(i,i)=1/sqrt(m[i]) where m[i] is the mass of the displaced atom
Thus, these vectors are normalized but *not* orthogonal

                  0          1          2          3          4          5    
      0       0.000000   0.000000   0.000000   0.000000   0.000000   0.000000
      1       0.000000   0.000000   0.000000   0.000000   0.000000   0.000000
      2       0.000000   0.000000   0.000000   0.000000   0.000000   0.000000
      3       0.000000   0.000000   0.000000   0.000000   0.000000   0.000000
      4       0.000000   0.000000   0.000000   0.000000   0.000000   0.000000
      5       0.000000   0.000000   0.000000   0.000000   0.000000   0.000000
      6       0.000000   0.000000   0.000000   0.000000   0.000000   0.000000
      7       0.000000   0.000000   0.000000   0.000000   0.000000   0.000000
      8       0.000000   0.000000   0.000000   0.000000   0.000000   0.000000
                  6          7          8    
      0      -0.080260   0.012517   0.074888
      1       0.003978  -0.000619  -0.003711
      2      -0.058662  -0.707986  -0.014373
      3       0.065230  -0.020854   0.007032
      4      -0.003233   0.001032  -0.000349
      5      -0.021043   0.627956   0.004612
      6       0.049925   0.140638  -0.990054
      7      -0.002476  -0.006969   0.049066
      8       0.991410  -0.289838   0.107178


-----------
IR SPECTRUM
-----------

 Mode   freq       eps      Int      T**2         TX        TY        TZ
       cm**-1   L/(mol*cm) km/mol    a.u.
----------------------------------------------------------------------------
  7:   2225.23   0.000358    1.81  0.000050  (-0.002665  0.000133  0.006564)
  8:   3536.61   0.025692  129.84  0.002267  (-0.045879  0.002296  0.012524)

* The epsilon (eps) is given for a Dirac delta lineshape.
** The dipole moment derivative (T) already includes vibrational overlap.

The first frequency considered to be a vibration is 7
The total number of vibrations considered is 2


--------------------------
THERMOCHEMISTRY AT 298.15K
--------------------------

Temperature         ... 298.15 K
Pressure            ... 1.00 atm
Total Mass          ... 27.03 AMU

Throughout the following assumptions are being made:
  (1) The electronic state is orbitally nondegenerate
  (2) There are no thermally accessible electronically excited states
  (3) Hindered rotations indicated by low frequency modes are not
      treated as such but are treated as vibrations and this may
      cause some error
  (4) All equations used are the standard statistical mechanics
      equations for an ideal gas
  (5) All vibrations are strictly harmonic

freq.    2225.23  E(vib)   ...       0.00 
freq.    3536.61  E(vib)   ...       0.00 

------------
INNER ENERGY
------------

The inner energy is: U= E(el) + E(ZPE) + E(vib) + E(rot) + E(trans)
    E(el)   - is the total energy from the electronic structure calculation
              = E(kin-el) + E(nuc-el) + E(el-el) + E(nuc-nuc)
    E(ZPE)  - the the zero temperature vibrational energy from the frequency calculation
    E(vib)  - the the finite temperature correction to E(ZPE) due to population
              of excited vibrational states
    E(rot)  - is the rotational thermal energy
    E(trans)- is the translational thermal energy

Summary of contributions to the inner energy U:
Electronic energy                ...    -93.27593970 Eh
Zero point energy                ...      0.01312643 Eh       8.24 kcal/mol
Thermal vibrational correction   ...      0.00000022 Eh       0.00 kcal/mol
Thermal rotational correction    ...      0.00141627 Eh       0.89 kcal/mol
Thermal translational correction ...      0.00141627 Eh       0.89 kcal/mol
-----------------------------------------------------------------------
Total thermal energy                    -93.25998051 Eh


Summary of corrections to the electronic energy:
(perhaps to be used in another calculation)
Total thermal correction                  0.00283276 Eh       1.78 kcal/mol
Non-thermal (ZPE) correction              0.01312643 Eh       8.24 kcal/mol
-----------------------------------------------------------------------
Total correction                          0.01595919 Eh      10.01 kcal/mol


--------
ENTHALPY
--------

The enthalpy is H = U + kB*T
                kB is Boltzmann's constant
Total free energy                 ...    -93.25998051 Eh 
Thermal Enthalpy correction       ...      0.00094421 Eh       0.59 kcal/mol
-----------------------------------------------------------------------
Total Enthalpy                    ...    -93.25903630 Eh


Note: Rotational entropy computed according to Herzberg 
Infrared and Raman Spectra, Chapter V,1, Van Nostrand Reinhold, 1945 
Point Group:  Cs, Symmetry Number:   1  
Rotational constants in cm-1:    16.285116     1.854484     1.664893 

Vibrational entropy computed according to the QRRHO of S. Grimme
Chem.Eur.J. 2012 18 9955


-------
ENTROPY
-------

The entropy contributions are T*S = T*(S(el)+S(vib)+S(rot)+S(trans))
     S(el)   - electronic entropy
     S(vib)  - vibrational entropy
     S(rot)  - rotational entropy
     S(trans)- translational entropy
The entropies will be listed as multiplied by the temperature to get
units of energy

Electronic entropy                ...      0.00000000 Eh      0.00 kcal/mol
Vibrational entropy               ...      0.00000024 Eh      0.00 kcal/mol
Rotational entropy                ...      0.00766134 Eh      4.81 kcal/mol
Translational entropy             ...      0.01701823 Eh     10.68 kcal/mol
-----------------------------------------------------------------------
Final entropy term                ...      0.02467981 Eh     15.49 kcal/mol

In case the symmetry of your molecule has not been determined correctly
or in case you have a reason to use a different symmetry number we print 
out the resulting rotational entropy values for sn=1,12 :
 --------------------------------------------------------
|  sn= 1 | S(rot)=       0.00766134 Eh      4.81 kcal/mol|
|  sn= 2 | S(rot)=       0.00700688 Eh      4.40 kcal/mol|
|  sn= 3 | S(rot)=       0.00662405 Eh      4.16 kcal/mol|
|  sn= 4 | S(rot)=       0.00635243 Eh      3.99 kcal/mol|
|  sn= 5 | S(rot)=       0.00614174 Eh      3.85 kcal/mol|
|  sn= 6 | S(rot)=       0.00596959 Eh      3.75 kcal/mol|
|  sn= 7 | S(rot)=       0.00582405 Eh      3.65 kcal/mol|
|  sn= 8 | S(rot)=       0.00569797 Eh      3.58 kcal/mol|
|  sn= 9 | S(rot)=       0.00558676 Eh      3.51 kcal/mol|
|  sn=10 | S(rot)=       0.00548728 Eh      3.44 kcal/mol|
|  sn=11 | S(rot)=       0.00539729 Eh      3.39 kcal/mol|
|  sn=12 | S(rot)=       0.00531514 Eh      3.34 kcal/mol|
 --------------------------------------------------------


-------------------
GIBBS FREE ENERGY
-------------------

The Gibbs free energy is G = H - T*S

Total enthalpy                    ...    -93.25903630 Eh 
Total entropy correction          ...     -0.02467981 Eh    -15.49 kcal/mol
-----------------------------------------------------------------------
Final Gibbs free energy         ...    -93.28371611 Eh

For completeness - the Gibbs free energy minus the electronic energy
G-E(el)                           ...     -0.00777641 Eh     -4.88 kcal/mol



Timings for individual modules:

Sum of individual times         ...       72.538 sec (=   1.209 min)
GTO integral calculation        ...        4.581 sec (=   0.076 min)   6.3 %
SCF iterations                  ...        7.265 sec (=   0.121 min)  10.0 %
EPR/NMR calculation             ...        2.298 sec (=   0.038 min)   3.2 %
SCF Gradient evaluation         ...        4.021 sec (=   0.067 min)   5.5 %
Numerical frequency calculation ...       54.373 sec (=   0.906 min)  75.0 %
                             ****ORCA TERMINATED NORMALLY****
TOTAL RUN TIME: 0 days 0 hours 1 minutes 5 seconds 941 msec
