
                                 *****************
                                 * O   R   C   A *
                                 *****************

           --- An Ab Initio, DFT and Semiempirical electronic structure package ---

                  #######################################################
                  #                        -***-                        #
                  #          Department of theory and spectroscopy      #
                  #               Directorship: Frank Neese             #
                  #        Max Planck Institute fuer Kohlenforschung    #
                  #                Kaiser Wilhelm Platz 1               #
                  #                 D-45470 Muelheim/Ruhr               #
                  #                      Germany                        #
                  #                                                     #
                  #                  All rights reserved                #
                  #                        -***-                        #
                  #######################################################


                         Program Version 4.2.1 -  RELEASE  -


 With contributions from (in alphabetic order):
   Daniel Aravena         : Magnetic Suceptibility
   Michael Atanasov       : Ab Initio Ligand Field Theory (pilot matlab implementation)
   Alexander A. Auer      : GIAO ZORA, VPT2
   Ute Becker             : Parallelization
   Giovanni Bistoni       : ED, misc. LED, open-shell LED, HFLD
   Martin Brehm           : Molecular dynamics
   Dmytro Bykov           : SCF Hessian
   Vijay G. Chilkuri      : MRCI spin determinant printing, contributions to CSF-ICE
   Dipayan Datta          : RHF DLPNO-CCSD density
   Achintya Kumar Dutta   : EOM-CC, STEOM-CC
   Dmitry Ganyushin       : Spin-Orbit,Spin-Spin,Magnetic field MRCI
   Miquel Garcia          : C-PCM Hessian, Gaussian charge scheme
   Yang Guo               : DLPNO-NEVPT2, CIM, IAO-localization
   Andreas Hansen         : Spin unrestricted coupled pair/coupled cluster methods
   Benjamin Helmich-Paris : CASSCF linear response (MC-RPA)
   Lee Huntington         : MR-EOM, pCC
   Robert Izsak           : Overlap fitted RIJCOSX, COSX-SCS-MP3, EOM
   Christian Kollmar      : KDIIS, OOCD, Brueckner-CCSD(T), CCSD density
   Simone Kossmann        : Meta GGA functionals, TD-DFT gradient, OOMP2, MP2 Hessian
   Martin Krupicka        : AUTO-CI
   Lucas Lang             : DCDCAS
   Dagmar Lenk            : GEPOL surface, SMD
   Dimitrios Liakos       : Extrapolation schemes; Compound Job, initial MDCI parallelization
   Dimitrios Manganas     : Further ROCIS development; embedding schemes
   Dimitrios Pantazis     : SARC Basis sets
   Taras Petrenko         : DFT Hessian,TD-DFT gradient, ASA, ECA, R-Raman, ABS, FL, XAS/XES, NRVS
   Peter Pinski           : DLPNO-MP2, DLPNO-MP2 Gradient
   Christoph Reimann      : Effective Core Potentials
   Marius Retegan         : Local ZFS, SOC
   Christoph Riplinger    : Optimizer, TS searches, QM/MM, DLPNO-CCSD(T), (RO)-DLPNO pert. Triples
   Tobias Risthaus        : Range-separated hybrids, TD-DFT gradient, RPA, STAB
   Michael Roemelt        : Original ROCIS implementation
   Masaaki Saitow         : Open-shell DLPNO-CCSD energy and density
   Barbara Sandhoefer     : DKH picture change effects
   Avijit Sen             : IP-ROCIS
   Kantharuban Sivalingam : CASSCF convergence, NEVPT2, FIC-MRCI
   Bernardo de Souza      : ESD, SOC TD-DFT
   Georgi Stoychev        : AutoAux, RI-MP2 NMR
   Willem Van den Heuvel  : Paramagnetic NMR
   Boris Wezisla          : Elementary symmetry handling
   Frank Wennmohs         : Technical directorship


 We gratefully acknowledge several colleagues who have allowed us to
 interface, adapt or use parts of their codes:
   Stefan Grimme, W. Hujo, H. Kruse,             : VdW corrections, initial TS optimization,
                  C. Bannwarth                     DFT functionals, gCP, sTDA/sTD-DF
   Ed Valeev, F. Pavosevic, A. Kumar             : LibInt (2-el integral package), F12 methods
   Garnet Chan, S. Sharma, J. Yang, R. Olivares  : DMRG
   Ulf Ekstrom                                   : XCFun DFT Library
   Mihaly Kallay                                 : mrcc  (arbitrary order and MRCC methods)
   Andreas Klamt, Michael Diedenhofen            : otool_cosmo (COSMO solvation model)
   Jiri Pittner, Ondrej Demel                    : Mk-CCSD
   Frank Weinhold                                : gennbo (NPA and NBO analysis)
   Christopher J. Cramer and Donald G. Truhlar   : smd solvation model
   Lars Goerigk                                  : TD-DFT with DH, B97 family of functionals
   V. Asgeirsson, H. Jonsson                     : NEB implementation
   FAccTs GmbH                                   : IRC, NEB, NEB-TS, Multilevel, MM, QM/MM, CI optimization
   S Lehtola, MJT Oliveira, MAL Marques          : LibXC Library


 Your calculation uses the libint2 library for the computation of 2-el integrals
 For citations please refer to: http://libint.valeyev.net

 Your ORCA version has been built with support for libXC version: 4.2.3
 For citations please refer to: https://tddft.org/programs/libxc/

 This ORCA versions uses:
   CBLAS   interface :  Fast vector & matrix operations
   LAPACKE interface :  Fast linear algebra routines
   SCALAPACK package :  Parallel linear algebra routines


SCAN-COORDS
----- Orbital basis set information -----
Your calculation utilizes the basis: def2-TZVP
   F. Weigend and R. Ahlrichs, Phys. Chem. Chem. Phys. 7, 3297 (2005).

----- AuxJ basis set information -----
Your calculation utilizes the auxiliary basis: def2/J
   F. Weigend, Phys. Chem. Chem. Phys. 8, 1057 (2006).

================================================================================
                                        WARNINGS
                       Please study these warnings very carefully!
================================================================================


WARNING: your system is open-shell and RHF/RKS was chosen
  ===> : WILL SWITCH to UHF/UKS


WARNING: Geometry Optimization
  ===> : Switching off AutoStart
         For restart on a previous wavefunction, please use MOREAD

INFO   : the flag for use of LIBINT has been found!

================================================================================
                                       INPUT FILE
================================================================================
NAME = input.inp
|  1> ! VWN
|  2> %method
|  3>         method DFT
|  4>         runtyp OPT
|  5> end
|  6> %basis
|  7>         basis "def2-TZVP"
|  8> end
|  9> ! NumFreq
| 10> %output
| 11>         XYZFile true
| 12> end
| 13> %coords
| 14>         CTyp xyz
| 15>         Charge -1
| 16>         Mult 4
| 17>         Units Angs
| 18>         coords
| 19>         S   -1.39647036050000      0.53462187290000     -0.03924813650000
| 20> 	O   0.17256062380000      0.51237371890000     -0.08215917990000
| 21>         O       -1.9650463708      1.2081038033      1.2597276053
| 22>         end
| 23> end
| 24> 
| 25>                          ****END OF INPUT****
================================================================================

                       *****************************
                       * Geometry Optimization Run *
                       *****************************

Geometry optimization settings:
Update method            Update   .... BFGS
Choice of coordinates    CoordSys .... Z-matrix Internals
Initial Hessian          InHess   .... Almoef's Model

Convergence Tolerances:
Energy Change            TolE     ....  5.0000e-06 Eh
Max. Gradient            TolMAXG  ....  3.0000e-04 Eh/bohr
RMS Gradient             TolRMSG  ....  1.0000e-04 Eh/bohr
Max. Displacement        TolMAXD  ....  4.0000e-03 bohr
RMS Displacement         TolRMSD  ....  2.0000e-03 bohr
Strict Convergence                ....  False
------------------------------------------------------------------------------
                        ORCA OPTIMIZATION COORDINATE SETUP
------------------------------------------------------------------------------

The optimization will be done in new redundant internal coordinates
Making redundant internal coordinates   ...  (new redundants) done
Evaluating the initial hessian          ...  (Almloef) done
Evaluating the coordinates              ...  done
Calculating the B-matrix                .... done
Calculating the G-matrix                .... done
Diagonalizing the G-matrix              .... done
The first mode is                       ....    0
The number of degrees of freedom        ....    3

    -----------------------------------------------------------------
                    Redundant Internal Coordinates


    -----------------------------------------------------------------
         Definition                    Initial Value    Approx d2E/dq
    -----------------------------------------------------------------
      1. B(O   1,S   0)                  1.5698         0.779513   
      2. B(O   2,S   0)                  1.5698         0.779513   
      3. A(O   1,S   0,O   2)          113.0000         0.521263   
    -----------------------------------------------------------------

Number of atoms                         .... 3
Number of degrees of freedom            .... 3

         *************************************************************
         *                GEOMETRY OPTIMIZATION CYCLE   1            *
         *************************************************************
---------------------------------
CARTESIAN COORDINATES (ANGSTROEM)
---------------------------------
  S     -1.396470    0.534622   -0.039248
  O      0.172561    0.512374   -0.082159
  O     -1.965046    1.208104    1.259728

----------------------------
CARTESIAN COORDINATES (A.U.)
----------------------------
  NO LB      ZA    FRAG     MASS         X           Y           Z
   0 S    16.0000    0    32.060   -2.638947    1.010289   -0.074168
   1 O     8.0000    0    15.999    0.326092    0.968246   -0.155258
   2 O     8.0000    0    15.999   -3.713399    2.282985    2.380540

--------------------------------
INTERNAL COORDINATES (ANGSTROEM)
--------------------------------
 S      0   0   0     0.000000000000     0.00000000     0.00000000
 O      1   0   0     1.569775323954     0.00000000     0.00000000
 O      1   2   0     1.569775324003   112.99999967     0.00000000

---------------------------
INTERNAL COORDINATES (A.U.)
---------------------------
 S      0   0   0     0.000000000000     0.00000000     0.00000000
 O      1   0   0     2.966445454061     0.00000000     0.00000000
 O      1   2   0     2.966445454153   112.99999967     0.00000000

---------------------
BASIS SET INFORMATION
---------------------
There are 2 groups of distinct atoms

 Group   1 Type S   : 14s9p3d1f contracted to 5s5p2d1f pattern {73211/51111/21/1}
 Group   2 Type O   : 11s6p2d1f contracted to 5s3p2d1f pattern {62111/411/11/1}

Atom   0S    basis set group =>   1
Atom   1O    basis set group =>   2
Atom   2O    basis set group =>   2
---------------------------------
AUXILIARY/J BASIS SET INFORMATION
---------------------------------
There are 2 groups of distinct atoms

 Group   1 Type S   : 14s5p5d2f1g contracted to 8s4p3d1f1g pattern {71111111/2111/311/2/1}
 Group   2 Type O   : 12s5p4d2f1g contracted to 6s4p3d1f1g pattern {711111/2111/211/2/1}

Atom   0S    basis set group =>   1
Atom   1O    basis set group =>   2
Atom   2O    basis set group =>   2
------------------------------------------------------------------------------
                           ORCA GTO INTEGRAL CALCULATION
                           -- RI-GTO INTEGRALS CHOSEN --
------------------------------------------------------------------------------

                         BASIS SET STATISTICS AND STARTUP INFO

Gaussian basis set:
 # of primitive gaussian shells          ...   67
 # of primitive gaussian functions       ...  155
 # of contracted shells                  ...   35
 # of contracted basis functions         ...   99
 Highest angular momentum                ...    3
 Maximum contraction depth               ...    7
Auxiliary gaussian basis set:
 # of primitive gaussian shells          ...   75
 # of primitive gaussian functions       ...  217
 # of contracted shells                  ...   47
 # of contracted aux-basis functions     ...  149
 Highest angular momentum                ...    4
 Maximum contraction depth               ...    7
Ratio of auxiliary to basis functions    ...  1.51
Integral package used                  ... LIBINT
 One Electron integrals                  ... done
 Ordering auxiliary basis shells         ... done
 Integral threshhold             Thresh  ...  2.500e-11
 Primitive cut-off               TCut    ...  2.500e-12
 Pre-screening matrix                    ... done
 Shell pair data                         ... 
 Ordering of the shell pairs             ... done (   0.000 sec) 606 of 630 pairs
 Determination of significant pairs      ... done (   0.000 sec)
 Creation of shell pair data             ... done (   0.000 sec)
 Storage of shell pair data              ... done (   0.000 sec)
 Shell pair data done in (   0.001 sec)
 Computing two index integrals           ... done
 Cholesky decomposition of the V-matrix  ... done


Timings:
 Total evaluation time                   ...   0.141 sec (  0.002 min)
 One electron matrix time                ...   0.007 sec (  0.000 min) =  4.9%
 Schwartz matrix evaluation time         ...   0.106 sec (  0.002 min) = 75.0%
 Two index repulsion integral time       ...   0.001 sec (  0.000 min) =  0.6%
 Cholesky decomposition of V             ...   0.001 sec (  0.000 min) =  0.7%
 Three index repulsion integral time     ...   0.000 sec (  0.000 min) =  0.0%

-------------------------------------------------------------------------------
                                 ORCA SCF
-------------------------------------------------------------------------------

------------
SCF SETTINGS
------------
Hamiltonian:
 Density Functional     Method          .... DFT(GTOs)
 Exchange Functional    Exchange        .... Slater
   X-Alpha parameter    XAlpha          ....  0.666667
 Correlation Functional Correlation     .... VWN-5
 Gradients option       PostSCFGGA      .... off
   Density functional embedding theory  .... OFF
 RI-approximation to the Coulomb term is turned on
   Number of auxiliary basis functions  .... 149


General Settings:
 Integral files         IntName         .... input
 Hartree-Fock type      HFTyp           .... UHF
 Total Charge           Charge          ....   -1
 Multiplicity           Mult            ....    4
 Number of Electrons    NEL             ....   33
 Basis Dimension        Dim             ....   99
 Nuclear Repulsion      ENuc            ....     99.2347787323 Eh

Convergence Acceleration:
 DIIS                   CNVDIIS         .... on
   Start iteration      DIISMaxIt       ....    12
   Startup error        DIISStart       ....  0.200000
   # of expansion vecs  DIISMaxEq       ....     5
   Bias factor          DIISBfac        ....   1.050
   Max. coefficient     DIISMaxC        ....  10.000
 Newton-Raphson         CNVNR           .... off
 SOSCF                  CNVSOSCF        .... off
 Level Shifting         CNVShift        .... on
   Level shift para.    LevelShift      ....    0.2500
   Turn off err/grad.   ShiftErr        ....    0.0010
 Zerner damping         CNVZerner       .... off
 Static damping         CNVDamp         .... on
   Fraction old density DampFac         ....    0.7000
   Max. Damping (<1)    DampMax         ....    0.9800
   Min. Damping (>=0)   DampMin         ....    0.0000
   Turn off err/grad.   DampErr         ....    0.1000
 Fernandez-Rico         CNVRico         .... off

SCF Procedure:
 Maximum # iterations   MaxIter         ....   125
 SCF integral mode      SCFMode         .... Direct
   Integral package                     .... LIBINT
 Reset frequency        DirectResetFreq ....    20
 Integral Threshold     Thresh          ....  2.500e-11 Eh
 Primitive CutOff       TCut            ....  2.500e-12 Eh

Convergence Tolerance:
 Convergence Check Mode ConvCheckMode   .... Total+1el-Energy
 Convergence forced     ConvForced      .... 0
 Energy Change          TolE            ....  1.000e-08 Eh
 1-El. energy change                    ....  1.000e-05 Eh
 DIIS Error             TolErr          ....  5.000e-07


Diagonalization of the overlap matrix:
Smallest eigenvalue                        ... 2.852e-03
Time for diagonalization                   ...    0.002 sec
Threshold for overlap eigenvalues          ... 1.000e-08
Number of eigenvalues below threshold      ... 0
Time for construction of square roots      ...    0.001 sec
Total time needed                          ...    0.003 sec

-------------------
DFT GRID GENERATION
-------------------

General Integration Accuracy     IntAcc      ...  4.340
Radial Grid Type                 RadialGrid  ... Gauss-Chebyshev
Angular Grid (max. acc.)         AngularGrid ... Lebedev-110
Angular grid pruning method      GridPruning ... 3 (G Style)
Weight generation scheme         WeightScheme... Becke
Basis function cutoff            BFCut       ...    1.0000e-11
Integration weight cutoff        WCut        ...    1.0000e-14
Grids for H and He will be reduced by one unit

# of grid points (after initial pruning)     ...   5238 (   0.0 sec)
# of grid points (after weights+screening)   ...   5195 (   0.0 sec)
nearest neighbour list constructed           ...    0.0 sec
Grid point re-assignment to atoms done       ...    0.0 sec
Grid point division into batches done        ...    0.0 sec
Reduced shell lists constructed in    0.0 sec

Total number of grid points                  ...     5195
Total number of batches                      ...       82
Average number of points per batch           ...       63
Average number of grid points per atom       ...     1732
Average number of shells per batch           ...    25.98 (74.22%)
Average number of basis functions per batch  ...    77.71 (78.50%)
Average number of large shells per batch     ...    22.80 (87.76%)
Average number of large basis fcns per batch ...    68.36 (87.97%)
Maximum spatial batch extension              ...  21.58, 24.36, 17.75 au
Average spatial batch extension              ...   5.27,  5.61,  5.02 au

Time for grid setup =    0.035 sec

------------------------------
INITIAL GUESS: MODEL POTENTIAL
------------------------------
Loading Hartree-Fock densities                     ... done
Calculating cut-offs                               ... done
Setting up the integral package                    ... done
Initializing the effective Hamiltonian             ... done
Starting the Coulomb interaction                   ... done (   0.0 sec)
Reading the grid                                   ... done
Mapping shells                                     ... done
Starting the XC term evaluation                    ... done (   0.0 sec)
  promolecular density results
     # of electrons  =     32.000144950
     EX              =    -37.814147658
     EC              =     -2.363173803
     EX+EC           =    -40.177321461
Transforming the Hamiltonian                       ... done (   0.0 sec)
Diagonalizing the Hamiltonian                      ... done (   0.0 sec)
Back transforming the eigenvectors                 ... done (   0.0 sec)
Now organizing SCF variables                       ... done
                      ------------------
                      INITIAL GUESS DONE (   0.2 sec)
                      ------------------
--------------
SCF ITERATIONS
--------------
ITER       Energy         Delta-E        Max-DP      RMS-DP      [F,P]     Damp
               ***  Starting incremental Fock matrix formation  ***
  0   -545.8964678512   0.000000000000 0.30743580  0.00488979  0.2824086 0.7000
  1   -546.0118947387  -0.115426887434 0.33662268  0.00478998  0.0640532 0.7000
                               ***Turning on DIIS***
  2   -546.0301035849  -0.018208846221 0.77252967  0.01034904  0.0374126 0.0000
  3   -546.1008370118  -0.070733426889 0.23697301  0.00321097  0.0173999 0.0000
  4   -546.1028726445  -0.002035632734 0.01371766  0.00028985  0.0318942 0.0000
  5   -546.1053456950  -0.002473050497 0.02159539  0.00025022  0.0068224 0.0000
  6   -546.1056228569  -0.000277161886 0.00341220  0.00005094  0.0014570 0.0000
  7   -546.1056408337  -0.000017976863 2.13807984  0.03523817  0.0007298 0.0000
  8   -546.1001229807   0.005517853038 0.00013574  0.00000228  0.0382295 0.0000
  9   -546.1001105770   0.000012403741 0.00005761  0.00000092  0.0382520 0.0000
 10   -546.1001075556   0.000003021360 0.00008563  0.00000184  0.0382569 0.0000
 11   -546.1001222441  -0.000014688492 0.00018599  0.00000516  0.0382175 0.0000
 12   -546.1001651858  -0.000042941727 0.08391114  0.00163039  0.0381740 0.0000
 13   -546.1053296135  -0.005164427716 0.02345336  0.00057836  0.0469856 0.0000
 14   -546.1097659807  -0.004436367123 0.00469878  0.00018076  0.0247433 0.0000
 15   -546.1107090993  -0.000943118652 0.00176098  0.00006428  0.0058511 0.0000
 16   -546.1107484136  -0.000039314248 0.00157561  0.00003476  0.0040502 0.0000
 17   -546.1107748846  -0.000026471041 0.03612968  0.00080550  0.0004254 0.0000
 18   -546.1106922122   0.000082672360 0.00004934  0.00000159  0.0048936 0.0000
 19   -546.1106926634  -0.000000451141 0.00004951  0.00000121  0.0050070 0.0000
               *** Restarting incremental Fock matrix formation ***
                                   *** Resetting DIIS ***
 20   -546.1106903694   0.000002294023 0.00330190  0.00015501  0.0051054 0.0000
 21   -546.1103557515   0.000334617812 0.00194112  0.00005837  0.0134330 0.0000
 22   -546.1106527460  -0.000296994422 0.00121092  0.00003273  0.0065096 0.0000
 23   -546.1107308308  -0.000078084839 0.00083911  0.00002516  0.0038950 0.0000
 24   -546.1107700026  -0.000039171835 0.00042515  0.00001390  0.0018722 0.0000
 25   -546.1107808712  -0.000010868506 0.00854987  0.00019163  0.0008108 0.0000
 26   -546.1107739331   0.000006938003 0.00009167  0.00000300  0.0016353 0.0000
 27   -546.1107764736  -0.000002540495 0.00005071  0.00000257  0.0013672 0.0000
 28   -546.1107783618  -0.000001888192 0.00006385  0.00000235  0.0011510 0.0000
 29   -546.1107796648  -0.000001302921 0.01633540  0.00036266  0.0009861 0.0000
 30   -546.1107836754  -0.000004010608 0.00908032  0.00020348  0.0002103 0.0000
 31   -546.1107817883   0.000001887037 0.01121638  0.00024929  0.0007228 0.0000
 32   -546.1107834328  -0.000001644427 0.00018136  0.00000404  0.0003710 0.0000
 33   -546.1107834980  -0.000000065238 0.00078024  0.00001723  0.0003419 0.0000
 34   -546.1107836333  -0.000000135330 0.02062587  0.00045903  0.0002852 0.0000
 35   -546.1107790168   0.000004616560 0.00014758  0.00000292  0.0011269 0.0000
 36   -546.1107803463  -0.000001329490 0.01966807  0.00043740  0.0008893 0.0000
 37   -546.1107838152  -0.000003468914 0.00215780  0.00004753  0.0002117 0.0000
 38   -546.1107838860  -0.000000070826 0.00113462  0.00002513  0.0001458 0.0000
 39   -546.1107838665   0.000000019520 0.00024528  0.00000542  0.0001637 0.0000
               *** Restarting incremental Fock matrix formation ***
                                   *** Resetting DIIS ***
 40   -546.1107839181  -0.000000051628 0.01819066  0.00040463  0.0001326 0.0000
 41   -546.1107739224   0.000009995721 0.00007711  0.00000362  0.0016550 0.0000
 42   -546.1107776679  -0.000003745469 0.00006590  0.00000253  0.0012209 0.0000
 43   -546.1107792759  -0.000001608091 0.00008439  0.00000245  0.0010208 0.0000
 44   -546.1107801769  -0.000000900915 0.01800961  0.00039978  0.0009016 0.0000
 45   -546.1107838822  -0.000003705296 0.00206777  0.00004576  0.0001728 0.0000
 46   -546.1107839497  -0.000000067593 0.00148381  0.00003290  0.0000746 0.0000
 47   -546.1107839313   0.000000018417 0.00008721  0.00000194  0.0001294 0.0000
 48   -546.1107839506  -0.000000019245 0.00003948  0.00000118  0.0001040 0.0000
 49   -546.1107839776  -0.000000026980 0.00099733  0.00002216  0.0000526 0.0000
 50   -546.1107839821  -0.000000004580 0.00080744  0.00001797  0.0000649 0.0000
 51   -546.1107839841  -0.000000001920 0.00013809  0.00000311  0.0000468 0.0000
                 **** Energy Check signals convergence ****

               *****************************************************
               *                     SUCCESS                       *
               *           SCF CONVERGED AFTER  52 CYCLES          *
               *****************************************************

Setting up the final grid:

General Integration Accuracy     IntAcc      ...  4.670
Radial Grid Type                 RadialGrid  ... Gauss-Chebyshev
Angular Grid (max. acc.)         AngularGrid ... Lebedev-302
Angular grid pruning method      GridPruning ... 3 (G Style)
Weight generation scheme         WeightScheme... Becke
Basis function cutoff            BFCut       ...    1.0000e-11
Integration weight cutoff        WCut        ...    1.0000e-14
Grids for H and He will be reduced by one unit

# of grid points (after initial pruning)     ...  19270 (   0.0 sec)
# of grid points (after weights+screening)   ...  19125 (   0.0 sec)
nearest neighbour list constructed           ...    0.0 sec
Grid point re-assignment to atoms done       ...    0.0 sec
Grid point division into batches done        ...    0.1 sec
Reduced shell lists constructed in    0.2 sec

Total number of grid points                  ...    19125
Total number of batches                      ...      300
Average number of points per batch           ...       63
Average number of grid points per atom       ...     6375
Average number of shells per batch           ...    23.23 (66.38%)
Average number of basis functions per batch  ...    69.92 (70.62%)
Average number of large shells per batch     ...    20.08 (86.43%)
Average number of large basis fcns per batch ...    60.32 (86.27%)
Maximum spatial batch extension              ...  17.31, 19.94, 17.78 au
Average spatial batch extension              ...   3.41,  3.63,  3.52 au

Final grid set up in    0.2 sec
Final integration                            ... done (   0.2 sec)
Change in XC energy                          ...     0.000153978
Integrated number of electrons               ...    32.999993956
Previous integrated no of electrons          ...    33.000195460

----------------
TOTAL SCF ENERGY
----------------

Total Energy       :         -546.11063001 Eh          -14860.42573 eV

Components:
Nuclear Repulsion  :           99.23477873 Eh            2700.31561 eV
Electronic Energy  :         -645.34540874 Eh          -17560.74134 eV
One Electron Energy:         -961.74186285 Eh          -26170.32656 eV
Two Electron Energy:          316.39645411 Eh            8609.58522 eV

Virial components:
Potential Energy   :        -1092.01806632 Eh          -29715.32228 eV
Kinetic Energy     :          545.90743631 Eh           14854.89655 eV
Virial Ratio       :            2.00037221


DFT components:
N(Alpha)           :       17.999996926310 electrons
N(Beta)            :       14.999997029744 electrons
N(Total)           :       32.999993956054 electrons
E(X)               :      -38.167331487241 Eh       
E(C)               :       -2.399065754743 Eh       
E(XC)              :      -40.566397241984 Eh       
DFET-embed. en.    :        0.000000000000 Eh       

---------------
SCF CONVERGENCE
---------------

  Last Energy change         ...   -3.4955e-09  Tolerance :   1.0000e-08
  Last MAX-Density change    ...    2.4016e-04  Tolerance :   1.0000e-07
  Last RMS-Density change    ...    5.2955e-06  Tolerance :   5.0000e-09
  Last DIIS Error            ...    3.0716e-05  Tolerance :   5.0000e-07

             **** THE GBW FILE WAS UPDATED (input.gbw) ****
             **** DENSITY FILE WAS UPDATED (input.scfp) ****
             **** ENERGY FILE WAS UPDATED (input.en.tmp) ****
----------------------
UHF SPIN CONTAMINATION
----------------------

Warning: in a DFT calculation there is little theoretical justification to 
         calculate <S**2> as in Hartree-Fock theory. We will do it anyways
         but you should keep in mind that the values have only limited relevance

Expectation value of <S**2>     :     3.753407
Ideal value S*(S+1) for S=1.5   :     3.750000
Deviation                       :     0.003407

             **** THE GBW FILE WAS UPDATED (input.gbw) ****
             **** DENSITY FILE WAS UPDATED (input.scfp) ****
----------------
ORBITAL ENERGIES
----------------
                 SPIN UP ORBITALS
  NO   OCC          E(Eh)            E(eV) 
   0   1.0000     -87.575887     -2383.0610 
   1   1.0000     -18.411874      -501.0126 
   2   1.0000     -18.411390      -500.9994 
   3   1.0000      -7.486379      -203.7147 
   4   1.0000      -5.541333      -150.7873 
   5   1.0000      -5.539486      -150.7371 
   6   1.0000      -5.539055      -150.7253 
   7   1.0000      -0.741971       -20.1900 
   8   1.0000      -0.670838       -18.2544 
   9   1.0000      -0.354403        -9.6438 
  10   1.0000      -0.202338        -5.5059 
  11   1.0000      -0.174192        -4.7400 
  12   1.0000      -0.168254        -4.5784 
  13   1.0000      -0.081567        -2.2195 
  14   1.0000      -0.073849        -2.0095 
  15   1.0000      -0.068113        -1.8535 
  16   1.0000       0.054248         1.4762 
  17   1.0000       0.201112         5.4725 
  18   0.0000       0.202777         5.5179 
  19   0.0000       0.402701        10.9581 
  20   0.0000       0.412970        11.2375 
  21   0.0000       0.437967        11.9177 
  22   0.0000       0.493069        13.4171 
  23   0.0000       0.518249        14.1023 
  24   0.0000       0.521331        14.1861 
  25   0.0000       0.543672        14.7941 
  26   0.0000       0.556300        15.1377 
  27   0.0000       0.562829        15.3154 
  28   0.0000       0.632700        17.2166 
  29   0.0000       0.644856        17.5474 
  30   0.0000       0.670223        18.2377 
  31   0.0000       0.698515        19.0076 
  32   0.0000       0.721293        19.6274 
  33   0.0000       0.841915        22.9097 
  34   0.0000       0.915649        24.9161 
  35   0.0000       0.993733        27.0408 
  36   0.0000       1.424173        38.7537 
  37   0.0000       1.468925        39.9715 
  38   0.0000       1.479644        40.2632 
  39   0.0000       1.489243        40.5244 
  40   0.0000       1.540259        41.9126 
  41   0.0000       1.594546        43.3898 
  42   0.0000       1.613162        43.8964 
  43   0.0000       1.633375        44.4464 
  44   0.0000       1.636804        44.5397 
  45   0.0000       1.659521        45.1579 
  46   0.0000       1.704601        46.3846 
  47   0.0000       1.716592        46.7108 
  48   0.0000       1.857526        50.5459 
  49   0.0000       1.866236        50.7829 
  50   0.0000       1.893165        51.5156 
  51   0.0000       1.934775        52.6479 
  52   0.0000       2.008750        54.6609 
  53   0.0000       2.160995        58.8037 
  54   0.0000       2.225552        60.5603 
  55   0.0000       2.249648        61.2160 
  56   0.0000       2.344330        63.7925 
  57   0.0000       2.353121        64.0317 
  58   0.0000       2.425734        66.0076 
  59   0.0000       2.463143        67.0255 
  60   0.0000       2.486160        67.6519 
  61   0.0000       2.811605        76.5077 
  62   0.0000       2.816888        76.6514 
  63   0.0000       2.840784        77.3017 
  64   0.0000       2.888922        78.6116 
  65   0.0000       2.907599        79.1198 
  66   0.0000       2.967691        80.7550 
  67   0.0000       3.418034        93.0094 
  68   0.0000       3.927141       106.8629 
  69   0.0000       5.198496       141.4583 
  70   0.0000       5.215022       141.9080 
  71   0.0000       5.218422       142.0005 
  72   0.0000       5.220389       142.0540 
  73   0.0000       5.223976       142.1516 
  74   0.0000       5.230328       142.3244 
  75   0.0000       5.238460       142.5457 
  76   0.0000       5.301368       144.2576 
  77   0.0000       5.328451       144.9945 
  78   0.0000       5.404590       147.0664 
  79   0.0000       5.424068       147.5964 
  80   0.0000       5.433771       147.8604 
  81   0.0000       5.496458       149.5662 
  82   0.0000       5.597733       152.3220 
  83   0.0000       6.279219       170.8662 
  84   0.0000       6.312555       171.7734 
  85   0.0000       6.316315       171.8757 
  86   0.0000       6.328527       172.2080 
  87   0.0000       6.613973       179.9753 
  88   0.0000       6.616221       180.0365 
  89   0.0000       6.627788       180.3513 
  90   0.0000       6.695259       182.1873 
  91   0.0000       6.791687       184.8112 
  92   0.0000       6.872547       187.0115 
  93   0.0000       8.780018       238.9164 
  94   0.0000       9.017915       245.3899 
  95   0.0000       9.343487       254.2492 
  96   0.0000      19.731767       536.9287 
  97   0.0000      43.123331      1173.4455 
  98   0.0000      43.318155      1178.7469 

                 SPIN DOWN ORBITALS
  NO   OCC          E(Eh)            E(eV) 
   0   1.0000     -87.569292     -2382.8816 
   1   1.0000     -18.391181      -500.4495 
   2   1.0000     -18.390480      -500.4304 
   3   1.0000      -7.478383      -203.4971 
   4   1.0000      -5.533350      -150.5701 
   5   1.0000      -5.529838      -150.4745 
   6   1.0000      -5.528067      -150.4264 
   7   1.0000      -0.708286       -19.2735 
   8   1.0000      -0.632463       -17.2102 
   9   1.0000      -0.309672        -8.4266 
  10   1.0000      -0.164065        -4.4644 
  11   1.0000      -0.139293        -3.7904 
  12   1.0000      -0.132667        -3.6101 
  13   1.0000      -0.045486        -1.2377 
  14   1.0000      -0.035084        -0.9547 
  15   0.0000      -0.016152        -0.4395 
  16   0.0000       0.104817         2.8522 
  17   0.0000       0.233337         6.3494 
  18   0.0000       0.253275         6.8920 
  19   0.0000       0.430633        11.7181 
  20   0.0000       0.438038        11.9196 
  21   0.0000       0.473405        12.8820 
  22   0.0000       0.518231        14.1018 
  23   0.0000       0.549998        14.9662 
  24   0.0000       0.557344        15.1661 
  25   0.0000       0.563666        15.3381 
  26   0.0000       0.583442        15.8763 
  27   0.0000       0.597363        16.2551 
  28   0.0000       0.651195        17.7199 
  29   0.0000       0.666491        18.1362 
  30   0.0000       0.692051        18.8317 
  31   0.0000       0.718443        19.5498 
  32   0.0000       0.761413        20.7191 
  33   0.0000       0.859342        23.3839 
  34   0.0000       0.948091        25.7989 
  35   0.0000       1.027631        27.9633 
  36   0.0000       1.456073        39.6218 
  37   0.0000       1.495290        40.6889 
  38   0.0000       1.511956        41.1424 
  39   0.0000       1.517153        41.2838 
  40   0.0000       1.574882        42.8547 
  41   0.0000       1.627003        44.2730 
  42   0.0000       1.652810        44.9752 
  43   0.0000       1.656514        45.0760 
  44   0.0000       1.671812        45.4923 
  45   0.0000       1.692537        46.0563 
  46   0.0000       1.738910        47.3181 
  47   0.0000       1.752617        47.6911 
  48   0.0000       1.893660        51.5291 
  49   0.0000       1.912867        52.0518 
  50   0.0000       1.935501        52.6677 
  51   0.0000       1.974960        53.7414 
  52   0.0000       2.041860        55.5618 
  53   0.0000       2.186687        59.5028 
  54   0.0000       2.254072        61.3364 
  55   0.0000       2.277012        61.9606 
  56   0.0000       2.382444        64.8296 
  57   0.0000       2.388452        64.9931 
  58   0.0000       2.465168        67.0806 
  59   0.0000       2.513577        68.3979 
  60   0.0000       2.517780        68.5123 
  61   0.0000       2.846234        77.4500 
  62   0.0000       2.854378        77.6716 
  63   0.0000       2.877441        78.2992 
  64   0.0000       2.924652        79.5838 
  65   0.0000       2.941496        80.0422 
  66   0.0000       3.004359        81.7528 
  67   0.0000       3.453986        93.9877 
  68   0.0000       3.966250       107.9271 
  69   0.0000       5.235492       142.4650 
  70   0.0000       5.245858       142.7470 
  71   0.0000       5.255199       143.0012 
  72   0.0000       5.256989       143.0499 
  73   0.0000       5.260528       143.1462 
  74   0.0000       5.272266       143.4656 
  75   0.0000       5.279194       143.6542 
  76   0.0000       5.327433       144.9668 
  77   0.0000       5.353125       145.6659 
  78   0.0000       5.447119       148.2236 
  79   0.0000       5.462489       148.6419 
  80   0.0000       5.467338       148.7738 
  81   0.0000       5.533958       150.5866 
  82   0.0000       5.638819       153.4401 
  83   0.0000       6.331574       172.2909 
  84   0.0000       6.364629       173.1904 
  85   0.0000       6.370649       173.3542 
  86   0.0000       6.384164       173.7219 
  87   0.0000       6.658986       181.2002 
  88   0.0000       6.669500       181.4863 
  89   0.0000       6.676697       181.6822 
  90   0.0000       6.744486       183.5268 
  91   0.0000       6.835058       185.9914 
  92   0.0000       6.918388       188.2589 
  93   0.0000       8.805190       239.6014 
  94   0.0000       9.037823       245.9317 
  95   0.0000       9.364002       254.8075 
  96   0.0000      19.749133       537.4012 
  97   0.0000      43.150754      1174.1917 
  98   0.0000      43.345601      1179.4938 

                    ********************************
                    * MULLIKEN POPULATION ANALYSIS *
                    ********************************

--------------------------------------------
MULLIKEN ATOMIC CHARGES AND SPIN POPULATIONS
--------------------------------------------
   0 S :   -0.416407    1.965857
   1 O :   -0.295560    0.517681
   2 O :   -0.288033    0.516461
Sum of atomic charges         :   -1.0000000
Sum of atomic spin populations:    3.0000000

-----------------------------------------------------
MULLIKEN REDUCED ORBITAL CHARGES AND SPIN POPULATIONS
-----------------------------------------------------
CHARGE
  0 S s       :     5.756084  s :     5.756084
      pz      :     3.282318  p :    10.169178
      px      :     3.478698
      py      :     3.408163
      dz2     :     0.108019  d :     0.444421
      dxz     :     0.099860
      dyz     :     0.058925
      dx2y2   :     0.087970
      dxy     :     0.089647
      f0      :     0.010296  f :     0.046724
      f+1     :     0.005467
      f-1     :     0.004651
      f+2     :     0.010507
      f-2     :     0.003048
      f+3     :     0.004057
      f-3     :     0.008698
  1 O s       :     3.767038  s :     3.767038
      pz      :     1.597133  p :     4.505499
      px      :     1.249796
      py      :     1.658570
      dz2     :     0.002036  d :     0.021785
      dxz     :     0.006908
      dyz     :     0.000110
      dx2y2   :     0.005814
      dxy     :     0.006916
      f0      :     0.000125  f :     0.001238
      f+1     :     0.000197
      f-1     :     0.000022
      f+2     :     0.000221
      f-2     :     0.000006
      f+3     :     0.000331
      f-3     :     0.000335
  2 O s       :     3.760712  s :     3.760712
      pz      :     1.321301  p :     4.504592
      px      :     1.599978
      py      :     1.583313
      dz2     :     0.005683  d :     0.021498
      dxz     :     0.006411
      dyz     :     0.004773
      dx2y2   :     0.002111
      dxy     :     0.002520
      f0      :     0.000253  f :     0.001230
      f+1     :     0.000247
      f-1     :     0.000249
      f+2     :     0.000183
      f-2     :     0.000231
      f+3     :     0.000035
      f-3     :     0.000033

SPIN
  0 S s       :     0.133759  s :     0.133759
      pz      :     0.455731  p :     1.698505
      px      :     0.702932
      py      :     0.539841
      dz2     :     0.031337  d :     0.130273
      dxz     :     0.039130
      dyz     :     0.013413
      dx2y2   :     0.031703
      dxy     :     0.014690
      f0      :     0.000060  f :     0.003321
      f+1     :     0.001056
      f-1     :    -0.000434
      f+2     :     0.001121
      f-2     :     0.000648
      f+3     :     0.000209
      f-3     :     0.000661
  1 O s       :    -0.097567  s :    -0.097567
      pz      :     0.233532  p :     0.615181
      px      :     0.169125
      py      :     0.212524
      dz2     :    -0.000282  d :     0.000071
      dxz     :     0.000831
      dyz     :     0.000045
      dx2y2   :    -0.000824
      dxy     :     0.000302
      f0      :    -0.000003  f :    -0.000003
      f+1     :     0.000007
      f-1     :    -0.000001
      f+2     :    -0.000006
      f-2     :     0.000001
      f+3     :     0.000012
      f-3     :    -0.000012
  2 O s       :    -0.104228  s :    -0.104228
      pz      :     0.281765  p :     0.620823
      px      :     0.112470
      py      :     0.226589
      dz2     :    -0.000577  d :    -0.000130
      dxz     :     0.000927
      dyz     :    -0.000553
      dx2y2   :    -0.000061
      dxy     :     0.000135
      f0      :     0.000007  f :    -0.000004
      f+1     :    -0.000006
      f-1     :     0.000032
      f+2     :    -0.000014
      f-2     :    -0.000012
      f+3     :    -0.000005
      f-3     :    -0.000006


                     *******************************
                     * LOEWDIN POPULATION ANALYSIS *
                     *******************************

-------------------------------------------
LOEWDIN ATOMIC CHARGES AND SPIN POPULATIONS
-------------------------------------------
   0 S :   -0.138700    1.677449
   1 O :   -0.430929    0.658802
   2 O :   -0.430372    0.663748

----------------------------------------------------
LOEWDIN REDUCED ORBITAL CHARGES AND SPIN POPULATIONS
----------------------------------------------------
CHARGE
  0 S s       :     5.293072  s :     5.293072
      pz      :     3.182183  p :     9.709650
      px      :     3.205738
      py      :     3.321729
      dz2     :     0.263853  d :     0.972648
      dxz     :     0.187817
      dyz     :     0.136989
      dx2y2   :     0.235332
      dxy     :     0.148657
      f0      :     0.028324  f :     0.163330
      f+1     :     0.024280
      f-1     :     0.019039
      f+2     :     0.029753
      f-2     :     0.015018
      f+3     :     0.022456
      f-3     :     0.024460
  1 O s       :     3.702060  s :     3.702060
      pz      :     1.583426  p :     4.658300
      px      :     1.439026
      py      :     1.635849
      dz2     :     0.009130  d :     0.067072
      dxz     :     0.014536
      dyz     :     0.000136
      dx2y2   :     0.027149
      dxy     :     0.016121
      f0      :     0.000275  f :     0.003497
      f+1     :     0.000721
      f-1     :     0.000054
      f+2     :     0.000463
      f-2     :     0.000017
      f+3     :     0.001164
      f-3     :     0.000802
  2 O s       :     3.703588  s :     3.703588
      pz      :     1.465232  p :     4.656219
      px      :     1.587749
      py      :     1.603237
      dz2     :     0.022959  d :     0.067075
      dxz     :     0.012423
      dyz     :     0.021474
      dx2y2   :     0.005199
      dxy     :     0.005020
      f0      :     0.000667  f :     0.003490
      f+1     :     0.000671
      f-1     :     0.000935
      f+2     :     0.000457
      f-2     :     0.000591
      f+3     :     0.000098
      f-3     :     0.000071

SPIN
  0 S s       :     0.098963  s :     0.098963
      pz      :     0.318542  p :     1.160814
      px      :     0.374736
      py      :     0.467536
      dz2     :     0.115470  d :     0.383127
      dxz     :     0.087766
      dyz     :     0.047586
      dx2y2   :     0.099889
      dxy     :     0.032417
      f0      :     0.002017  f :     0.034546
      f+1     :     0.006024
      f-1     :     0.001074
      f+2     :     0.007457
      f-2     :     0.006931
      f+3     :     0.005416
      f-3     :     0.005627
  1 O s       :     0.036035  s :     0.036035
      pz      :     0.240548  p :     0.606748
      px      :     0.150655
      py      :     0.215545
      dz2     :     0.000624  d :     0.015524
      dxz     :     0.005546
      dyz     :     0.000011
      dx2y2   :     0.002568
      dxy     :     0.006775
      f0      :     0.000073  f :     0.000495
      f+1     :    -0.000003
      f-1     :     0.000019
      f+2     :     0.000110
      f-2     :     0.000002
      f+3     :     0.000017
      f-3     :     0.000277
  2 O s       :     0.037625  s :     0.037625
      pz      :     0.265957  p :     0.610068
      px      :     0.120733
      py      :     0.223378
      dz2     :     0.007286  d :     0.015561
      dxz     :     0.000407
      dyz     :     0.005637
      dx2y2   :     0.001751
      dxy     :     0.000480
      f0      :     0.000233  f :     0.000494
      f+1     :     0.000005
      f-1     :     0.000123
      f+2     :     0.000116
      f-2     :    -0.000001
      f+3     :     0.000015
      f-3     :     0.000004


                      *****************************
                      * MAYER POPULATION ANALYSIS *
                      *****************************

  NA   - Mulliken gross atomic population
  ZA   - Total nuclear charge
  QA   - Mulliken gross atomic charge
  VA   - Mayer's total valence
  BVA  - Mayer's bonded valence
  FA   - Mayer's free valence

  ATOM       NA         ZA         QA         VA         BVA        FA
  0 S     16.4164    16.0000    -0.4164     3.8064     2.1312     1.6752
  1 O      8.2956     8.0000    -0.2956     1.5823     1.3559     0.2264
  2 O      8.2880     8.0000    -0.2880     1.5618     1.3325     0.2293

  Mayer bond orders larger than 0.100000
B(  0-S ,  1-O ) :   1.0773 B(  0-S ,  2-O ) :   1.0539 B(  1-O ,  2-O ) :   0.2786 


-------
TIMINGS
-------

Total SCF time: 0 days 0 hours 0 min 11 sec 

Total time                  ....      11.044 sec
Sum of individual times     ....      10.848 sec  ( 98.2%)

Fock matrix formation       ....      10.126 sec  ( 91.7%)
  Split-RI-J                ....       7.201 sec  ( 71.1% of F)
  XC integration            ....       2.811 sec  ( 27.8% of F)
    Basis function eval.    ....       0.619 sec  ( 22.0% of XC)
    Density eval.           ....       0.800 sec  ( 28.5% of XC)
    XC-Functional eval.     ....       0.371 sec  ( 13.2% of XC)
    XC-Potential eval.      ....       0.928 sec  ( 33.0% of XC)
Diagonalization             ....       0.229 sec  (  2.1%)
Density matrix formation    ....       0.010 sec  (  0.1%)
Population analysis         ....       0.005 sec  (  0.0%)
Initial guess               ....       0.148 sec  (  1.3%)
Orbital Transformation      ....       0.000 sec  (  0.0%)
Orbital Orthonormalization  ....       0.000 sec  (  0.0%)
DIIS solution               ....       0.075 sec  (  0.7%)
Grid generation             ....       0.255 sec  (  2.3%)

-------------------------   --------------------
FINAL SINGLE POINT ENERGY      -546.110630009341
-------------------------   --------------------

------------------------------------------------------------------------------
                         ORCA SCF GRADIENT CALCULATION
------------------------------------------------------------------------------

Gradient of the Kohn-Sham DFT energy:
Kohn-Sham wavefunction type      ... UKS
Hartree-Fock exchange scaling    ...    0.000
Number of operators              ...    2
Number of atoms                  ...    3
Basis set dimensions             ...   99
Integral neglect threshold       ... 2.5e-11
Integral primitive cutoff        ... 2.5e-12

Nuclear repulsion gradient       ... done
One Electron Gradient            ... done
Pre-screening matrix             ... done
RI-J gradient                    ... done
Exchange-correlation gradient    ... done

------------------
CARTESIAN GRADIENT
------------------

   1   S   :    0.045697975    0.031242692    0.060394637
   2   O   :   -0.027842286   -0.013658009   -0.026386724
   3   O   :   -0.017855688   -0.017584683   -0.034007913

Difference to translation invariance:
           :   -0.0000000000    0.0000000000    0.0000000000

Norm of the cartesian gradient     ...    0.1007695443
RMS gradient                       ...    0.0335898481
MAX gradient                       ...    0.0603946370

-------
TIMINGS
-------

Total SCF gradient time            ...        1.021 sec

One electron gradient       ....       0.015 sec  (  1.5%)
Prescreening matrices       ....       0.205 sec  ( 20.0%)
RI-J Coulomb gradient       ....       0.255 sec  ( 25.0%)
XC gradient                 ....       0.385 sec  ( 37.7%)
------------------------------------------------------------------------------
                         ORCA GEOMETRY RELAXATION STEP
------------------------------------------------------------------------------

Reading the OPT-File                    .... done
Getting information on internals        .... done
Copying old internal coords+grads       .... done
Making the new internal coordinates     .... (new redundants).... done
Validating the new internal coordinates .... (new redundants).... done
Calculating the B-matrix                .... done
Calculating the G,G- and P matrices     .... done
Transforming gradient to internals      .... done
Projecting the internal gradient        .... done
Number of atoms                         ....   3
Number of internal coordinates          ....   3
Current Energy                          ....  -546.110630009 Eh
Current gradient norm                   ....     0.100769544 Eh/bohr
Maximum allowed component of the step   ....  0.300
Current trust radius                    ....  0.300
Evaluating the initial hessian          ....  (Almloef) done
Projecting the Hessian                  .... done
Forming the augmented Hessian           .... done
Diagonalizing the augmented Hessian     .... done
Last element of RFO vector              ....  0.984957191
Lowest eigenvalues of augmented Hessian:
 -0.017215509  0.536374310  0.779512671
Length of the computed step             ....  0.175437605
The final length of the internal step   ....  0.175437605
Converting the step to cartesian space:
 Initial RMS(Int)=    0.1012889487
Transforming coordinates:
 Iter   0:  RMS(Cart)=    0.0802556296 RMS(Int)=    0.1027359451
 Iter   1:  RMS(Cart)=    0.0050354071 RMS(Int)=    0.0083514442
 Iter   2:  RMS(Cart)=    0.0002422359 RMS(Int)=    0.0004354048
 Iter   3:  RMS(Cart)=    0.0000360683 RMS(Int)=    0.0000535487
 Iter   4:  RMS(Cart)=    0.0000016381 RMS(Int)=    0.0000036580
 Iter   5:  RMS(Cart)=    0.0000002521 RMS(Int)=    0.0000003336
 Iter   6:  RMS(Cart)=    0.0000000124 RMS(Int)=    0.0000000297
done
Storing new coordinates                 .... done

                                .--------------------.
          ----------------------|Geometry convergence|-------------------------
          Item                value                   Tolerance       Converged
          ---------------------------------------------------------------------
          RMS gradient        0.0571013869            0.0001000000      NO
          MAX gradient        0.0905736370            0.0003000000      NO
          RMS step            0.1012889487            0.0020000000      NO
          MAX step            0.1682029873            0.0040000000      NO
          ........................................................
          Max(Bonds)      0.0194      Max(Angles)    9.64
          Max(Dihed)        0.00      Max(Improp)    0.00
          ---------------------------------------------------------------------

The optimization has not yet converged - more geometry cycles are needed


    ---------------------------------------------------------------------------
                         Redundant Internal Coordinates
                            (Angstroem and degrees)

        Definition                    Value    dE/dq     Step     New-Value
    ----------------------------------------------------------------------------
     1. B(O   1,S   0)                1.5698 -0.026906  0.0179    1.5876   
     2. B(O   2,S   0)                1.5698 -0.029227  0.0194    1.5892   
     3. A(O   1,S   0,O   2)          113.00  0.090574   -9.64    103.36   
    ----------------------------------------------------------------------------

         *************************************************************
         *                GEOMETRY OPTIMIZATION CYCLE   2            *
         *************************************************************
---------------------------------
CARTESIAN COORDINATES (ANGSTROEM)
---------------------------------
  S     -1.441609    0.504795   -0.096777
  O      0.143762    0.543902   -0.021349
  O     -1.891109    1.206403    1.256446

----------------------------
CARTESIAN COORDINATES (A.U.)
----------------------------
  NO LB      ZA    FRAG     MASS         X           Y           Z
   0 S    16.0000    0    32.060   -2.724246    0.953924   -0.182882
   1 O     8.0000    0    15.999    0.271671    1.027826   -0.040344
   2 O     8.0000    0    15.999   -3.573678    2.279770    2.374339

--------------------------------
INTERNAL COORDINATES (ANGSTROEM)
--------------------------------
 S      0   0   0     0.000000000000     0.00000000     0.00000000
 O      1   0   0     1.587645673843     0.00000000     0.00000000
 O      1   2   0     1.589187479196   103.36267828     0.00000000

---------------------------
INTERNAL COORDINATES (A.U.)
---------------------------
 S      0   0   0     0.000000000000     0.00000000     0.00000000
 O      1   0   0     3.000215521268     0.00000000     0.00000000
 O      1   2   0     3.003129111137   103.36267828     0.00000000

 One Electron integrals                  ... done
 Pre-screening matrix                    ... done

Diagonalization of the overlap matrix:
Smallest eigenvalue                        ... 3.158e-03
Time for diagonalization                   ...    0.002 sec
Threshold for overlap eigenvalues          ... 1.000e-08
Number of eigenvalues below threshold      ... 0
Time for construction of square roots      ...    0.001 sec
Total time needed                          ...    0.003 sec

-------------------
DFT GRID GENERATION
-------------------

General Integration Accuracy     IntAcc      ...  4.340
Radial Grid Type                 RadialGrid  ... Gauss-Chebyshev
Angular Grid (max. acc.)         AngularGrid ... Lebedev-110
Angular grid pruning method      GridPruning ... 3 (G Style)
Weight generation scheme         WeightScheme... Becke
Basis function cutoff            BFCut       ...    1.0000e-11
Integration weight cutoff        WCut        ...    1.0000e-14
Grids for H and He will be reduced by one unit

# of grid points (after initial pruning)     ...   5238 (   0.0 sec)
# of grid points (after weights+screening)   ...   5202 (   0.0 sec)
nearest neighbour list constructed           ...    0.0 sec
Grid point re-assignment to atoms done       ...    0.0 sec
Grid point division into batches done        ...    0.0 sec
Reduced shell lists constructed in    0.0 sec

Total number of grid points                  ...     5202
Total number of batches                      ...       83
Average number of points per batch           ...       62
Average number of grid points per atom       ...     1734
Average number of shells per batch           ...    26.30 (75.14%)
Average number of basis functions per batch  ...    79.06 (79.86%)
Average number of large shells per batch     ...    23.04 (87.60%)
Average number of large basis fcns per batch ...    69.44 (87.83%)
Maximum spatial batch extension              ...  21.80, 24.36, 17.75 au
Average spatial batch extension              ...   5.21,  5.41,  4.86 au

Time for grid setup =    0.038 sec

--------------
SCF ITERATIONS
--------------
ITER       Energy         Delta-E        Max-DP      RMS-DP      [F,P]     Damp
               ***  Starting incremental Fock matrix formation  ***
  0   -546.1129223279   0.000000000000 0.03139446  0.00062934  0.0301690 0.7000
  1   -546.1156421165  -0.002719788646 0.03710222  0.00072499  0.0211554 0.7000
                               ***Turning on DIIS***
  2   -546.1177523660  -0.002110249539 0.10573805  0.00206953  0.0148177 0.0000
  3   -546.1228023277  -0.005049961672 0.00688552  0.00015172  0.0032634 0.0000
  4   -546.1228798455  -0.000077517824 0.00515015  0.00011231  0.0030162 0.0000
  5   -546.1229519772  -0.000072131657 0.00356232  0.00007874  0.0013026 0.0000
  6   -546.1229671235  -0.000015146285 0.14490467  0.00446970  0.0003704 0.0000
  7   -546.1142212431   0.008745880367 0.00019472  0.00000378  0.0412501 0.0000
  8   -546.1141417005   0.000079542620 0.00025116  0.00000474  0.0413985 0.0000
  9   -546.1140649465   0.000076754025 0.00009600  0.00000210  0.0415228 0.0000
 10   -546.1140372025   0.000027743931 0.00017402  0.00000298  0.0415301 0.0000
 11   -546.1140397461  -0.000002543605 0.08533182  0.00169618  0.0415551 0.0000
 12   -546.1138014739   0.000238272243 0.01825489  0.00058237  0.0625294 0.0000
 13   -546.1238037644  -0.010002290508 0.00950474  0.00023120  0.0122657 0.0000
 14   -546.1245630979  -0.000759333475 0.00241869  0.00007329  0.0046227 0.0000
 15   -546.1245879325  -0.000024834581 0.00127966  0.00003486  0.0035593 0.0000
 16   -546.1246184849  -0.000030552461 0.00042102  0.00001328  0.0012129 0.0000
 17   -546.1246221667  -0.000003681733 0.16747042  0.00460397  0.0001847 0.0000
 18   -546.1083039130   0.016318253650 0.00002447  0.00000060  0.0554388 0.0000
 19   -546.1083222862  -0.000018373184 0.00003068  0.00000066  0.0553834 0.0000
               *** Restarting incremental Fock matrix formation ***
                                   *** Resetting DIIS ***
 20   -546.1083330898  -0.000010803585 0.09092995  0.00202902  0.0553613 0.0000
 21   -546.0975365956   0.010796494174 0.00753470  0.00020366  0.1124351 0.7000
 22   -546.1059495520  -0.008412956382 0.02443894  0.00068334  0.0852828 0.0000
 23   -546.1218504609  -0.015900908874 0.01478346  0.00028924  0.0111730 0.0000
 24   -546.1226019363  -0.000751475395 0.00443710  0.00012012  0.0102074 0.0000
 25   -546.1229233421  -0.000321405888 0.00176893  0.00004397  0.0018958 0.0000
 26   -546.1229446243  -0.000021282118 0.13870754  0.00442747  0.0005596 0.0000
 27   -546.1102310025   0.012713621722 0.00003913  0.00000124  0.0639368 0.0000
 28   -546.1102450393  -0.000014036708 0.00012059  0.00000480  0.0639530 0.0000
 29   -546.1103266938  -0.000081654575 0.00016246  0.00000490  0.0636025 0.0000
 30   -546.1103996503  -0.000072956468 0.00014056  0.00000395  0.0632477 0.0000
 31   -546.1104375561  -0.000037905849 0.06276889  0.00189520  0.0631907 0.0000
 32   -546.0917079499   0.018729606234 0.00922840  0.00022861  0.1477670 0.7000
 33   -546.1025264548  -0.010818504918 0.00996912  0.00024377  0.1158129 0.7000
 34   -546.1114135879  -0.008887133077 0.02413700  0.00062947  0.0835946 0.0000
 35   -546.1242841081  -0.012870520239 0.00911173  0.00017120  0.0040229 0.0000
 36   -546.1244610012  -0.000176893078 0.00104539  0.00004419  0.0019605 0.0000
 37   -546.1244951873  -0.000034186094 0.00094346  0.00002823  0.0012799 0.0000
 38   -546.1245117443  -0.000016557017 0.12426903  0.00396040  0.0006367 0.0000
 39   -546.0859632149   0.038548529421 0.00000786  0.00000032  0.1237406 0.7000
               *** Restarting incremental Fock matrix formation ***
                                   *** Resetting DIIS ***
 40   -546.0859459652   0.000017249693 0.01964159  0.00089876  0.1237860 0.7000
 41   -546.1053839113  -0.019437946083 0.05664327  0.00176055  0.0190813 0.0000
 42   -546.0909392098   0.014444701487 0.00473364  0.00015251  0.1160689 0.7000
 43   -546.0986885755  -0.007749365659 0.01675132  0.00060041  0.0965353 0.0000
 44   -546.1177587919  -0.019070216418 0.00758081  0.00020107  0.0226976 0.0000
 45   -546.1192741224  -0.001515330466 0.00224521  0.00010720  0.0079591 0.0000
 46   -546.1196337187  -0.000359596345 0.00161554  0.00005977  0.0035655 0.0000
 47   -546.1197207073  -0.000086988575 0.00127886  0.00004369  0.0015772 0.0000
 48   -546.1197649977  -0.000044290438 0.00122269  0.00004358  0.0010613 0.0000
 49   -546.1198062989  -0.000041301172 0.00127986  0.00004406  0.0010802 0.0000
 50   -546.1198492136  -0.000042914755 0.00134996  0.00004520  0.0011156 0.0000
 51   -546.1198949397  -0.000045726066 0.00144669  0.00004989  0.0011442 0.0000
 52   -546.1199378578  -0.000042918131 0.00153489  0.00005235  0.0022697 0.0000
 53   -546.1199836680  -0.000045810153 0.00163218  0.00005585  0.0031876 0.0000
 54   -546.1200263533  -0.000042685297 0.00179016  0.00005982  0.0044101 0.0000
 55   -546.1200693915  -0.000043038255 0.00194262  0.00006395  0.0056742 0.0000
 56   -546.1201061927  -0.000036801107 0.00210269  0.00006862  0.0070198 0.0000
 57   -546.1201203497  -0.000014157023 0.00230563  0.00007279  0.0090169 0.0000
 58   -546.1201400190  -0.000019669321 0.00249945  0.00007695  0.0108714 0.0000
 59   -546.1201526441  -0.000012625123 0.00270630  0.00008074  0.0128156 0.0000
               *** Restarting incremental Fock matrix formation ***
                                   *** Resetting DIIS ***
 60   -546.1201910903  -0.000038446190 0.01232777  0.00034762  0.0144106 0.0000
 61   -546.1190084731   0.001182617174 0.00479183  0.00013882  0.0316578 0.0000
 62   -546.1204726806  -0.001464207498 0.00252721  0.00009776  0.0119032 0.0000
 63   -546.1208816331  -0.000408952500 0.00213445  0.00007682  0.0021918 0.0000
 64   -546.1210152671  -0.000133633943 0.00239259  0.00007529  0.0025325 0.0000
 65   -546.1211211437  -0.000105876662 0.00252976  0.00007577  0.0035491 0.0000
 66   -546.1212232368  -0.000102093032 0.00265380  0.00007853  0.0045810 0.0000
 67   -546.1212830396  -0.000059802803 0.00280023  0.00008380  0.0068935 0.0000
 68   -546.1212734463   0.000009593290 0.00298432  0.00008852  0.0100131 0.0000
 69   -546.1212068097   0.000066636609 0.00306573  0.00009033  0.0133490 0.0000
 70   -546.1211591794   0.000047630248 0.00313265  0.00009152  0.0146648 0.0000
 71   -546.1211630125  -0.000003833040 0.00318617  0.00009321  0.0153121 0.0000
 72   -546.1210325301   0.000130482396 0.00312148  0.00009641  0.0175876 0.0000
 73   -546.1208864728   0.000146057236 0.00507788  0.00013383  0.0215764 0.0000
 74   -546.1213395517  -0.000453078865 0.00379107  0.00016907  0.0217873 0.0000
 75   -546.1222872161  -0.000947664358 0.00404847  0.00011373  0.0040779 0.0000
 76   -546.1224242805  -0.000137064468 0.00298731  0.00007158  0.0010890 0.0000
 77   -546.1224861296  -0.000061849074 0.00176968  0.00005955  0.0011224 0.0000
 78   -546.1225391478  -0.000053018178 0.00173646  0.00005573  0.0013550 0.0000
 79   -546.1225822822  -0.000043134379 0.00157623  0.00005504  0.0020158 0.0000
               *** Restarting incremental Fock matrix formation ***
                                   *** Resetting DIIS ***
 80   -546.1225963078  -0.000014025683 0.00298502  0.00011426  0.0036207 0.0000
 81   -546.1224948246   0.000101483269 0.00176206  0.00005792  0.0084025 0.0000
 82   -546.1226702880  -0.000175463476 0.00130799  0.00004605  0.0024697 0.0000
 83   -546.1227235341  -0.000053246086 0.13280532  0.00424999  0.0007326 0.0000
 84   -546.0863487953   0.036374738832 0.00006143  0.00000192  0.1085548 0.7000
 85   -546.0862463814   0.000102413890 0.00006981  0.00000289  0.1087565 0.7000
 86   -546.0860797426   0.000166638839 0.00007265  0.00000294  0.1090506 0.7000
 87   -546.0859100280   0.000169714620 0.00007501  0.00000266  0.1093334 0.7000
 88   -546.0857719447   0.000138083259 0.02264730  0.00090197  0.1095628 0.7000
 89   -546.1079549689  -0.022183024233 0.06171356  0.00192179  0.0203022 0.0000
 90   -546.0805037855   0.027451183377 0.00713885  0.00017910  0.1263155 0.7000
 91   -546.0903225598  -0.009818774234 0.00784829  0.00021148  0.1088221 0.7000
 92   -546.1004719001  -0.010149340349 0.02208681  0.00065375  0.0885959 0.0000
 93   -546.1213508921  -0.020878991941 0.00493417  0.00019023  0.0260933 0.0000
 94   -546.1231685468  -0.001817654761 0.00311901  0.00013495  0.0127600 0.0000
 95   -546.1239363218  -0.000767775016 0.00210454  0.00008017  0.0055830 0.0000
 96   -546.1240984831  -0.000162161275 0.00166439  0.00005735  0.0026417 0.0000
 97   -546.1241701458  -0.000071662635 0.12746778  0.00393893  0.0009654 0.0000
 98   -546.0783284314   0.045841714318 0.00000233  0.00000008  0.1327177 0.7000
 99   -546.0783324592  -0.000004027726 0.00009003  0.00000155  0.1327104 0.7000
               *** Restarting incremental Fock matrix formation ***
                                   *** Resetting DIIS ***
100   -546.0783349189  -0.000002459706 0.01989620  0.00099579  0.1327192 0.7000
101   -546.1024852162  -0.024150297374 0.05829859  0.00189022  0.0178896 0.0000
102   -546.0781001145   0.024385101732 0.00554055  0.00017289  0.1307634 0.7000
103   -546.0883402581  -0.010240143610 0.00624765  0.00020863  0.1110316 0.7000
104   -546.0985920300  -0.010251771828 0.01806512  0.00066380  0.0886591 0.0000
105   -546.1182030249  -0.019610994970 0.01306145  0.00022506  0.0210578 0.0000
106   -546.1193755689  -0.001172543934 0.00561922  0.00015166  0.0115034 0.0000
107   -546.1199171304  -0.000541561587 0.00284401  0.00008344  0.0047938 0.0000
108   -546.1200662940  -0.000149163528 0.00353011  0.00007965  0.0011206 0.0000
109   -546.1201553813  -0.000089087301 0.00318709  0.00007906  0.0011725 0.0000
110   -546.1202436243  -0.000088243034 0.00359076  0.00008298  0.0011790 0.0000
111   -546.1203369448  -0.000093320519 0.00244794  0.00007838  0.0011678 0.0000
112   -546.1204357357  -0.000098790892 0.00223878  0.00008145  0.0011980 0.0000
113   -546.1205144122  -0.000078676443 0.00251520  0.00008339  0.0038736 0.0000
114   -546.1206074176  -0.000093005473 0.00261884  0.00008694  0.0054673 0.0000
115   -546.1206923634  -0.000084945802 0.00270882  0.00009087  0.0072774 0.0000
116   -546.1207906128  -0.000098249344 0.00291521  0.00009532  0.0086705 0.0000
117   -546.1208701232  -0.000079510471 0.00324937  0.00010232  0.0105359 0.0000
118   -546.1208041774   0.000065945875 0.00325133  0.00010428  0.0143417 0.0000
119   -546.1207766069   0.000027570477 0.00364374  0.00011322  0.0165086 0.0000
               *** Restarting incremental Fock matrix formation ***
                                   *** Resetting DIIS ***
120   -546.1209562803  -0.000179673417 0.01011969  0.00043112  0.0143661 0.0000
121   -546.1188198719   0.002136408438 0.00490661  0.00016556  0.0350633 0.0000
122   -546.1211873004  -0.002367428541 0.00393448  0.00011769  0.0136957 0.0000
123   -546.1219205192  -0.000733218812 0.00333740  0.00009232  0.0043851 0.0000
124   -546.1221404746  -0.000219955417 0.00277640  0.00009078  0.0018543 0.0000

               *****************************************************
               *                      ERROR                        *
               *        SCF NOT CONVERGED AFTER 125 CYCLES         *
               *****************************************************

Setting up the final grid:

General Integration Accuracy     IntAcc      ...  4.670
Radial Grid Type                 RadialGrid  ... Gauss-Chebyshev
Angular Grid (max. acc.)         AngularGrid ... Lebedev-302
Angular grid pruning method      GridPruning ... 3 (G Style)
Weight generation scheme         WeightScheme... Becke
Basis function cutoff            BFCut       ...    1.0000e-11
Integration weight cutoff        WCut        ...    1.0000e-14
Grids for H and He will be reduced by one unit

# of grid points (after initial pruning)     ...  19270 (   0.0 sec)
# of grid points (after weights+screening)   ...  19141 (   0.0 sec)
nearest neighbour list constructed           ...    0.0 sec
Grid point re-assignment to atoms done       ...    0.0 sec
Grid point division into batches done        ...    0.1 sec
Reduced shell lists constructed in    0.2 sec

Total number of grid points                  ...    19141
Total number of batches                      ...      301
Average number of points per batch           ...       63
Average number of grid points per atom       ...     6380
Average number of shells per batch           ...    23.33 (66.66%)
Average number of basis functions per batch  ...    70.37 (71.08%)
Average number of large shells per batch     ...    20.15 (86.38%)
Average number of large basis fcns per batch ...    60.58 (86.09%)
Maximum spatial batch extension              ...  17.31, 19.50, 17.77 au
Average spatial batch extension              ...   3.40,  3.60,  3.47 au

Final grid set up in    0.2 sec
Final integration                            ... done (   0.2 sec)
Change in XC energy                          ...    -0.000156738
Integrated number of electrons               ...    32.999992024
Previous integrated no of electrons          ...    32.999724619
  Last Energy change         ...   -2.1996e-04  Tolerance :   1.0000e-08
  Last MAX-Density change    ...    2.7764e-03  Tolerance :   1.0000e-07
             **** DENSITY FILE WAS UPDATED (input.scfp) ****
             **** ENERGY FILE WAS UPDATED (input.en.tmp) ****

     --------------------------------------------------------------------
                                      WARNING
     The wavefunction IS NOT YET CONVERGED! It shows however signs of
     convergence. Therefore the wavefunction will be stored and can be
     used as input for another calculation. 
     DO NOT USE THIS WAVEFUNCTION  FOR ANYHTING ELSE. It is NOT RELIABLE
     --------------------------------------------------------------------

Total SCF time: 0 days 0 hours 0 min 28 sec 

-------------------------   --------------------
FINAL SINGLE POINT ENERGY      -546.122297212167   (Wavefunction not fully converged!)
-------------------------   --------------------

------------------------------------------------------------------------------
                         ORCA SCF GRADIENT CALCULATION
------------------------------------------------------------------------------

Gradient of the Kohn-Sham DFT energy:
Kohn-Sham wavefunction type      ... UKS
Hartree-Fock exchange scaling    ...    0.000
Number of operators              ...    2
Number of atoms                  ...    3
Basis set dimensions             ...   99
Integral neglect threshold       ... 2.5e-11
Integral primitive cutoff        ... 2.5e-12

Nuclear repulsion gradient       ... done
One Electron Gradient            ... done
Pre-screening matrix             ... done
RI-J gradient                    ... done
Exchange-correlation gradient    ... done

------------------
CARTESIAN GRADIENT
------------------

   1   S   :    0.082517108    0.038384251    0.074036998
   2   O   :   -0.040263836   -0.023167995   -0.044732445
   3   O   :   -0.042253272   -0.015216256   -0.029304554

Difference to translation invariance:
           :    0.0000000000   -0.0000000000    0.0000000000

Norm of the cartesian gradient     ...    0.1442166959
RMS gradient                       ...    0.0480722320
MAX gradient                       ...    0.0825171079

-------
TIMINGS
-------

Total SCF gradient time            ...        1.034 sec

One electron gradient       ....       0.015 sec  (  1.4%)
Prescreening matrices       ....       0.209 sec  ( 20.2%)
RI-J Coulomb gradient       ....       0.255 sec  ( 24.6%)
XC gradient                 ....       0.385 sec  ( 37.2%)
------------------------------------------------------------------------------
                         ORCA GEOMETRY RELAXATION STEP
------------------------------------------------------------------------------

Reading the OPT-File                    .... done
Getting information on internals        .... done
Copying old internal coords+grads       .... done
Making the new internal coordinates     .... (new redundants).... done
Validating the new internal coordinates .... (new redundants).... done
Calculating the B-matrix                .... done
Calculating the G,G- and P matrices     .... done
Transforming gradient to internals      .... done
Projecting the internal gradient        .... done
Number of atoms                         ....   3
Number of internal coordinates          ....   3
Current Energy                          ....  -546.122297212 Eh
Current gradient norm                   ....     0.144216696 Eh/bohr
Maximum allowed component of the step   ....  0.300
Current trust radius                    ....  0.300
Updating the Hessian (BFGS)             .... done
Forming the augmented Hessian           .... done
Diagonalizing the augmented Hessian     .... done
Last element of RFO vector              ....  0.366472179
Lowest eigenvalues of augmented Hessian:
 -0.391514212  0.060557494  0.727895246
Length of the computed step             ....  2.538880338
Warning: the length of the step is outside the trust region - taking restricted step instead
The input lambda is                     ....    -0.391514
   iter:   1  x=   -0.421452  g=  212.303046 f(x)=     6.355913
   iter:   2  x=   -0.465373  g=   63.790384 f(x)=     2.801725
   iter:   3  x=   -0.528052  g=   19.501085 f(x)=     1.222316
   iter:   4  x=   -0.612160  g=    6.192946 f(x)=     0.520876
   iter:   5  x=   -0.710695  g=    2.134047 f(x)=     0.210279
   iter:   6  x=   -0.796892  g=    0.867021 f(x)=     0.074734
   iter:   7  x=   -0.838323  g=    0.469498 f(x)=     0.019452
   iter:   8  x=   -0.844694  g=    0.363659 f(x)=     0.002317
   iter:   9  x=   -0.844817  g=    0.350303 f(x)=     0.000043
   iter:  10  x=   -0.844817  g=    0.350053 f(x)=     0.000000
   iter:  11  x=   -0.844817  g=    0.350053 f(x)=     0.000000
The output lambda is                    ....    -0.844817 (11 iterations)
The final length of the internal step   ....  0.300000000
Converting the step to cartesian space:
 Initial RMS(Int)=    0.1732050808
Transforming coordinates:
 Iter   0:  RMS(Cart)=    0.1483780892 RMS(Int)=    0.1772592406
 Iter   1:  RMS(Cart)=    0.0146721828 RMS(Int)=    0.0243459372
 Iter   2:  RMS(Cart)=    0.0012646801 RMS(Int)=    0.0023660588
 Iter   3:  RMS(Cart)=    0.0003142672 RMS(Int)=    0.0004434025
 Iter   4:  RMS(Cart)=    0.0000248048 RMS(Int)=    0.0000599393
 Iter   5:  RMS(Cart)=    0.0000065059 RMS(Int)=    0.0000077737
 Iter   6:  RMS(Cart)=    0.0000005612 RMS(Int)=    0.0000014288
 Iter   7:  RMS(Cart)=    0.0000001283 RMS(Int)=    0.0000001305
 Iter   8:  RMS(Cart)=    0.0000000137 RMS(Int)=    0.0000000322
done
Storing new coordinates                 .... done

                                .--------------------.
          ----------------------|Geometry convergence|-------------------------
          Item                value                   Tolerance       Converged
          ---------------------------------------------------------------------
          Energy change      -0.0116672028            0.0000050000      NO
          RMS gradient        0.0892332474            0.0001000000      NO
          MAX gradient        0.1471057115            0.0003000000      NO
          RMS step            0.1732050808            0.0020000000      NO
          MAX step            0.2896143431            0.0040000000      NO
          ........................................................
          Max(Bonds)      0.0381      Max(Angles)   16.59
          Max(Dihed)        0.00      Max(Improp)    0.00
          ---------------------------------------------------------------------

The optimization has not yet converged - more geometry cycles are needed


    ---------------------------------------------------------------------------
                         Redundant Internal Coordinates
                            (Angstroem and degrees)

        Definition                    Value    dE/dq     Step     New-Value
    ----------------------------------------------------------------------------
     1. B(O   1,S   0)                1.5876 -0.043287  0.0381    1.6257   
     2. B(O   2,S   0)                1.5892 -0.019335  0.0163    1.6055   
     3. A(O   1,S   0,O   2)          103.36  0.147106  -16.59     86.77   
    ----------------------------------------------------------------------------

         *************************************************************
         *                GEOMETRY OPTIMIZATION CYCLE   3            *
         *************************************************************
---------------------------------
CARTESIAN COORDINATES (ANGSTROEM)
---------------------------------
  S     -1.521130    0.459554   -0.184034
  O      0.073997    0.604027    0.094617
  O     -1.741823    1.191518    1.227737

----------------------------
CARTESIAN COORDINATES (A.U.)
----------------------------
  NO LB      ZA    FRAG     MASS         X           Y           Z
   0 S    16.0000    0    32.060   -2.874519    0.868432   -0.347774
   1 O     8.0000    0    15.999    0.139834    1.141446    0.178801
   2 O     8.0000    0    15.999   -3.291569    2.251642    2.320087

--------------------------------
INTERNAL COORDINATES (ANGSTROEM)
--------------------------------
 S      0   0   0     0.000000000000     0.00000000     0.00000000
 O      1   0   0     1.625714525029     0.00000000     0.00000000
 O      1   2   0     1.605482457649    86.76899895     0.00000000

---------------------------
INTERNAL COORDINATES (A.U.)
---------------------------
 S      0   0   0     0.000000000000     0.00000000     0.00000000
 O      1   0   0     3.072155224242     0.00000000     0.00000000
 O      1   2   0     3.033922157771    86.76899895     0.00000000

 One Electron integrals                  ... done
 Pre-screening matrix                    ... done

Diagonalization of the overlap matrix:
Smallest eigenvalue                        ... 3.700e-03
Time for diagonalization                   ...    0.002 sec
Threshold for overlap eigenvalues          ... 1.000e-08
Number of eigenvalues below threshold      ... 0
Time for construction of square roots      ...    0.001 sec
Total time needed                          ...    0.003 sec

-------------------
DFT GRID GENERATION
-------------------

General Integration Accuracy     IntAcc      ...  4.340
Radial Grid Type                 RadialGrid  ... Gauss-Chebyshev
Angular Grid (max. acc.)         AngularGrid ... Lebedev-110
Angular grid pruning method      GridPruning ... 3 (G Style)
Weight generation scheme         WeightScheme... Becke
Basis function cutoff            BFCut       ...    1.0000e-11
Integration weight cutoff        WCut        ...    1.0000e-14
Grids for H and He will be reduced by one unit

# of grid points (after initial pruning)     ...   5238 (   0.0 sec)
# of grid points (after weights+screening)   ...   5224 (   0.0 sec)
nearest neighbour list constructed           ...    0.0 sec
Grid point re-assignment to atoms done       ...    0.0 sec
Grid point division into batches done        ...    0.0 sec
Reduced shell lists constructed in    0.0 sec

Total number of grid points                  ...     5224
Total number of batches                      ...       84
Average number of points per batch           ...       62
Average number of grid points per atom       ...     1741
Average number of shells per batch           ...    26.51 (75.73%)
Average number of basis functions per batch  ...    79.80 (80.61%)
Average number of large shells per batch     ...    22.99 (86.73%)
Average number of large basis fcns per batch ...    69.39 (86.95%)
Maximum spatial batch extension              ...  22.23, 24.36, 20.44 au
Average spatial batch extension              ...   5.10,  5.43,  4.85 au

[...]
      f-2     :     0.000036
      f+3     :     0.000239
      f-3     :     0.000205
  2 O s       :     3.878489  s :     3.878489
      pz      :     1.409943  p :     4.503802
      px      :     1.465179
      py      :     1.628680
      dz2     :     0.006571  d :     0.019813
      dxz     :     0.004146
      dyz     :     0.005612
      dx2y2   :     0.002010
      dxy     :     0.001474
      f0      :     0.000243  f :     0.000938
      f+1     :     0.000114
      f-1     :     0.000302
      f+2     :     0.000135
      f-2     :     0.000106
      f+3     :     0.000014
      f-3     :     0.000023

SPIN
  0 S s       :    -0.000576  s :    -0.000576
      pz      :     0.308984  p :     1.342096
      px      :     0.522896
      py      :     0.510216
      dz2     :     0.036303  d :     0.086694
      dxz     :     0.004120
      dyz     :     0.014779
      dx2y2   :     0.026466
      dxy     :     0.005027
      f0      :     0.001130  f :     0.004535
      f+1     :     0.000092
      f-1     :     0.000529
      f+2     :     0.001921
      f-2     :     0.000078
      f+3     :     0.000287
      f-3     :     0.000497
  1 O s       :    -0.034260  s :    -0.034260
      pz      :     0.351106  p :     0.833683
      px      :     0.244187
      py      :     0.238389
      dz2     :     0.000242  d :    -0.000159
      dxz     :    -0.000166
      dyz     :     0.000193
      dx2y2   :    -0.000303
      dxy     :    -0.000125
      f0      :    -0.000020  f :    -0.000037
      f+1     :     0.000013
      f-1     :    -0.000001
      f+2     :    -0.000024
      f-2     :     0.000004
      f+3     :     0.000006
      f-3     :    -0.000016
  2 O s       :    -0.032973  s :    -0.032973
      pz      :     0.144748  p :     0.801190
      px      :     0.471005
      py      :     0.185437
      dz2     :    -0.000024  d :    -0.000148
      dxz     :    -0.000155
      dyz     :    -0.000294
      dx2y2   :     0.000319
      dxy     :     0.000006
      f0      :    -0.000023  f :    -0.000043
      f+1     :     0.000000
      f-1     :    -0.000015
      f+2     :    -0.000008
      f-2     :    -0.000001
      f+3     :     0.000004
      f-3     :    -0.000001


                     *******************************
                     * LOEWDIN POPULATION ANALYSIS *
                     *******************************

-------------------------------------------
LOEWDIN ATOMIC CHARGES AND SPIN POPULATIONS
-------------------------------------------
   0 S :   -0.128204    1.351642
   1 O :   -0.438051    0.839382
   2 O :   -0.433746    0.808976

----------------------------------------------------
LOEWDIN REDUCED ORBITAL CHARGES AND SPIN POPULATIONS
----------------------------------------------------
CHARGE
  0 S s       :     5.524248  s :     5.524248
      pz      :     3.192028  p :     9.738645
      px      :     3.221556
      py      :     3.325061
      dz2     :     0.211243  d :     0.740834
      dxz     :     0.140974
      dyz     :     0.117074
      dx2y2   :     0.170592
      dxy     :     0.100951
      f0      :     0.024367  f :     0.124477
      f+1     :     0.019343
      f-1     :     0.021792
      f+2     :     0.019232
      f-2     :     0.009046
      f+3     :     0.016463
      f-3     :     0.014234
  1 O s       :     3.755122  s :     3.755122
      pz      :     1.550817  p :     4.623681
      px      :     1.413530
      py      :     1.659334
      dz2     :     0.006096  d :     0.056610
      dxz     :     0.017791
      dyz     :     0.001713
      dx2y2   :     0.018540
      dxy     :     0.012471
      f0      :     0.000285  f :     0.002638
      f+1     :     0.000414
      f-1     :     0.000031
      f+2     :     0.000525
      f-2     :     0.000132
      f+3     :     0.000708
      f-3     :     0.000543
  2 O s       :     3.745012  s :     3.745012
      pz      :     1.529969  p :     4.627476
      px      :     1.450094
      py      :     1.647414
      dz2     :     0.021063  d :     0.058468
      dxz     :     0.009494
      dyz     :     0.019761
      dx2y2   :     0.004936
      dxy     :     0.003214
      f0      :     0.000687  f :     0.002789
      f+1     :     0.000319
      f-1     :     0.001036
      f+2     :     0.000377
      f-2     :     0.000257
      f+3     :     0.000051
      f-3     :     0.000062

SPIN
  0 S s       :     0.000485  s :     0.000485
      pz      :     0.244472  p :     1.078767
      px      :     0.363920
      py      :     0.470375
      dz2     :     0.099850  d :     0.244927
      dxz     :     0.017054
      dyz     :     0.040240
      dx2y2   :     0.073656
      dxy     :     0.014127
      f0      :     0.006060  f :     0.027464
      f+1     :     0.000989
      f-1     :     0.004968
      f+2     :     0.008807
      f-2     :     0.001057
      f+3     :     0.002972
      f-3     :     0.002610
  1 O s       :     0.018889  s :     0.018889
      pz      :     0.358719  p :     0.809302
      px      :     0.212570
      py      :     0.238013
      dz2     :     0.000407  d :     0.010942
      dxz     :     0.005224
      dyz     :     0.000819
      dx2y2   :     0.001036
      dxy     :     0.003457
      f0      :     0.000021  f :     0.000249
      f+1     :     0.000024
      f-1     :     0.000006
      f+2     :     0.000041
      f-2     :     0.000056
      f+3     :     0.000003
      f-3     :     0.000099
  2 O s       :     0.018167  s :     0.018167
      pz      :     0.130060  p :     0.779740
      px      :     0.470937
      py      :     0.178743
      dz2     :     0.003586  d :     0.010815
      dxz     :     0.002034
      dyz     :     0.002955
      dx2y2   :     0.001642
      dxy     :     0.000598
      f0      :     0.000134  f :     0.000255
      f+1     :     0.000022
      f-1     :     0.000009
      f+2     :     0.000034
      f-2     :     0.000020
      f+3     :     0.000011
      f-3     :     0.000025


                      *****************************
                      * MAYER POPULATION ANALYSIS *
                      *****************************

  NA   - Mulliken gross atomic population
  ZA   - Total nuclear charge
  QA   - Mulliken gross atomic charge
  VA   - Mayer's total valence
  BVA  - Mayer's bonded valence
  FA   - Mayer's free valence

  ATOM       NA         ZA         QA         VA         BVA        FA
  0 S     16.1928    16.0000    -0.1928     3.2997     2.1556     1.1441
  1 O      8.4041     8.0000    -0.4041     1.8546     1.5233     0.3313
  2 O      8.4030     8.0000    -0.4030     1.8627     1.5540     0.3086

  Mayer bond orders larger than 0.100000
B(  0-S ,  1-O ) :   1.0624 B(  0-S ,  2-O ) :   1.0932 B(  1-O ,  2-O ) :   0.4609 


-------
TIMINGS
-------

Total SCF time: 0 days 0 hours 0 min 2 sec 

Total time                  ....       2.347 sec
Sum of individual times     ....       2.192 sec  ( 93.4%)

Fock matrix formation       ....       1.870 sec  ( 79.6%)
  Split-RI-J                ....       1.216 sec  ( 65.1% of F)
  XC integration            ....       0.603 sec  ( 32.3% of F)
    Basis function eval.    ....       0.126 sec  ( 20.9% of XC)
    Density eval.           ....       0.183 sec  ( 30.3% of XC)
    XC-Functional eval.     ....       0.080 sec  ( 13.2% of XC)
    XC-Potential eval.      ....       0.196 sec  ( 32.5% of XC)
Diagonalization             ....       0.037 sec  (  1.6%)
Density matrix formation    ....       0.002 sec  (  0.1%)
Population analysis         ....       0.005 sec  (  0.2%)
Initial guess               ....       0.008 sec  (  0.3%)
Orbital Transformation      ....       0.000 sec  (  0.0%)
Orbital Orthonormalization  ....       0.005 sec  (  0.2%)
DIIS solution               ....       0.010 sec  (  0.4%)
Grid generation             ....       0.262 sec  ( 11.2%)

-------------------------   --------------------
FINAL SINGLE POINT ENERGY      -546.174170950383
-------------------------   --------------------

                                *** OPTIMIZATION RUN DONE ***

                            ***************************************
                            *     ORCA property calculations      *
                            ***************************************

                                    ---------------------
                                    Active property flags
                                    ---------------------
   (+) Dipole Moment


------------------------------------------------------------------------------
                       ORCA ELECTRIC PROPERTIES CALCULATION
------------------------------------------------------------------------------

Dipole Moment Calculation                       ... on
Quadrupole Moment Calculation                   ... off
Polarizability Calculation                      ... off
GBWName                                         ... input.gbw
Electron density file                           ... input.scfp
The origin for moment calculation is the CENTER OF MASS  = (-2.249067,  1.266870  0.420711)

-------------
DIPOLE MOMENT
-------------
                                X             Y             Z
Electronic contribution:     -0.31177      -0.19855      -0.38169
Nuclear contribution   :      0.02226       0.01423       0.02745
                        -----------------------------------------
Total Dipole Moment    :     -0.28950      -0.18432      -0.35423
                        -----------------------------------------
Magnitude (a.u.)       :      0.49322
Magnitude (Debye)      :      1.25367



--------------------
Rotational spectrum 
--------------------
 
Rotational constants in cm-1:     0.621171     0.486838     0.272931 
Rotational constants in MHz : 18622.228527 14595.031227  8182.252506 

 Dipole components along the rotational axes: 
x,y,z [a.u.] :    -0.025767    -0.492547     0.000585 
x,y,z [Debye]:    -0.065494    -1.251954     0.001488 

 

----------------------------------------------------------------------------
                           ORCA NUMERICAL FREQUENCIES
----------------------------------------------------------------------------

Number of atoms                ... 3
Central differences            ... used
Number of displacements        ... 18
Numerical increment            ... 5.000e-03 bohr
IR-spectrum generation         ... on
Raman-spectrum generation      ... off
Surface Crossing Hessian       ... off

The output will be reduced. Please look at the following files:
SCF program output             ... >input.lastscf
Integral program output        ... >input.lastint
Gradient program output        ... >input.lastgrad
Dipole moment program output   ... >input.lastmom
AutoCI program output          ... >input.lastautoci


         <<< Energy and Gradient at the input geometry >>>

        <<< Energy and Gradient at displaced geometries >>>
             <<<Displacing   1/coordinate 1 (+)>>>
             <<<Displacing   1/coordinate 1 (-)>>>
             <<<Displacing   1/coordinate 2 (+)>>>
             <<<Displacing   1/coordinate 2 (-)>>>
             <<<Displacing   1/coordinate 3 (+)>>>
             <<<Displacing   1/coordinate 3 (-)>>>
             <<<Displacing   2/coordinate 1 (+)>>>
             <<<Displacing   2/coordinate 1 (-)>>>
             <<<Displacing   2/coordinate 2 (+)>>>
             <<<Displacing   2/coordinate 2 (-)>>>
             <<<Displacing   2/coordinate 3 (+)>>>
             <<<Displacing   2/coordinate 3 (-)>>>
             <<<Displacing   3/coordinate 1 (+)>>>
             <<<Displacing   3/coordinate 1 (-)>>>
             <<<Displacing   3/coordinate 2 (+)>>>
             <<<Displacing   3/coordinate 2 (-)>>>
             <<<Displacing   3/coordinate 3 (+)>>>
             <<<Displacing   3/coordinate 3 (-)>>>

-----------------------
VIBRATIONAL FREQUENCIES
-----------------------

Scaling factor for frequencies =  1.000000000 (already applied!)

   0:         0.00 cm**-1
   1:         0.00 cm**-1
   2:         0.00 cm**-1
   3:         0.00 cm**-1
   4:         0.00 cm**-1
   5:         0.00 cm**-1
   6:       -54.27 cm**-1 ***imaginary mode***
   7:       526.91 cm**-1
   8:       756.02 cm**-1


------------
NORMAL MODES
------------

These modes are the cartesian displacements weighted by the diagonal matrix
M(i,i)=1/sqrt(m[i]) where m[i] is the mass of the displaced atom
Thus, these vectors are normalized but *not* orthogonal

                  0          1          2          3          4          5    
      0       0.000000   0.000000   0.000000   0.000000   0.000000   0.000000
      1       0.000000   0.000000   0.000000   0.000000   0.000000   0.000000
      2       0.000000   0.000000   0.000000   0.000000   0.000000   0.000000
      3       0.000000   0.000000   0.000000   0.000000   0.000000   0.000000
      4       0.000000   0.000000   0.000000   0.000000   0.000000   0.000000
      5       0.000000   0.000000   0.000000   0.000000   0.000000   0.000000
      6       0.000000   0.000000   0.000000   0.000000   0.000000   0.000000
      7       0.000000   0.000000   0.000000   0.000000   0.000000   0.000000
      8       0.000000   0.000000   0.000000   0.000000   0.000000   0.000000
                   6          7          8    
      0       0.339110   0.166294  -0.252919
      1      -0.100230   0.102605  -0.179505
      2      -0.193319   0.197898  -0.346220
      3      -0.655096   0.336449   0.578429
      4      -0.081558  -0.269148   0.058564
      5      -0.157305  -0.519119   0.112956
      6      -0.024437  -0.669682  -0.071611
      7       0.282407   0.063541   0.301141
      8       0.544691   0.122555   0.580825


-----------
IR SPECTRUM  
-----------

 Mode    freq (cm**-1)   T**2         TX         TY         TZ
-------------------------------------------------------------------
   7:       526.91    7.276932  (  1.663239   0.996325   1.875608)
   8:       756.02   62.139789  ( -4.480980  -2.969361  -5.765718)

The first frequency considered to be a vibration is 7
The total number of vibrations considered is 2


--------------------------
THERMOCHEMISTRY AT 298.15K
--------------------------

Temperature         ... 298.15 K
Pressure            ... 1.00 atm
Total Mass          ... 64.06 AMU

Throughout the following assumptions are being made:
  (1) The electronic state is orbitally nondegenerate
      but the spin degeneracy is treated
  (2) There are no thermally accessible electronically excited states
  (3) Hindered rotations indicated by low frequency modes are not
      treated as such but are treated as vibrations and this may
      cause some error
  (4) All equations used are the standard statistical mechanics
      equations for an ideal gas
  (5) All vibrations are strictly harmonic

freq.     526.91  E(vib)   ...       0.13 
freq.     756.02  E(vib)   ...       0.06 

------------
INNER ENERGY
------------

The inner energy is: U= E(el) + E(ZPE) + E(vib) + E(rot) + E(trans)
    E(el)   - is the total energy from the electronic structure calculation
              = E(kin-el) + E(nuc-el) + E(el-el) + E(nuc-nuc)
    E(ZPE)  - the the zero temperature vibrational energy from the frequency calculation
    E(vib)  - the the finite temperature correction to E(ZPE) due to population
              of excited vibrational states
    E(rot)  - is the rotational thermal energy
    E(trans)- is the translational thermal energy

Summary of contributions to the inner energy U:
Electronic energy                ...   -546.17416995 Eh
Zero point energy                ...      0.00292272 Eh       1.83 kcal/mol
Thermal vibrational correction   ...      0.00029706 Eh       0.19 kcal/mol
Thermal rotational correction    ...      0.00141627 Eh       0.89 kcal/mol
Thermal translational correction ...      0.00141627 Eh       0.89 kcal/mol
-----------------------------------------------------------------------
Total thermal energy                   -546.16811763 Eh


Summary of corrections to the electronic energy:
(perhaps to be used in another calculation)
Total thermal correction                  0.00312960 Eh       1.96 kcal/mol
Non-thermal (ZPE) correction              0.00292272 Eh       1.83 kcal/mol
-----------------------------------------------------------------------
Total correction                          0.00605232 Eh       3.80 kcal/mol


--------
ENTHALPY
--------

The enthalpy is H = U + kB*T
                kB is Boltzmann's constant
Total free energy                 ...   -546.16811763 Eh 
Thermal Enthalpy correction       ...      0.00094421 Eh       0.59 kcal/mol
-----------------------------------------------------------------------
Total Enthalpy                    ...   -546.16717342 Eh


Note: Rotational entropy computed according to Herzberg 
Infrared and Raman Spectra, Chapter V,1, Van Nostrand Reinhold, 1945 
Point Group:  Cs, Symmetry Number:   1  
Rotational constants in cm-1:     0.621171     0.486838     0.272931 

Vibrational entropy computed according to the QRRHO of S. Grimme
Chem.Eur.J. 2012 18 9955


-------
ENTROPY
-------

The entropy contributions are T*S = T*(S(el)+S(vib)+S(rot)+S(trans))
     S(el)   - electronic entropy
     S(vib)  - vibrational entropy
     S(rot)  - rotational entropy
     S(trans)- translational entropy
The entropies will be listed as mutliplied by the temperature to get
units of energy

Electronic entropy                ...      0.00130891 Eh      0.82 kcal/mol
Vibrational entropy               ...      0.00039977 Eh      0.25 kcal/mol
Rotational entropy                ...      0.01068845 Eh      6.71 kcal/mol
Translational entropy             ...      0.01824046 Eh     11.45 kcal/mol
-----------------------------------------------------------------------
Final entropy term                ...      0.03063759 Eh     19.23 kcal/mol

In case the symmetry of your molecule has not been determined correctly
or in case you have a reason to use a different symmetry number we print 
out the resulting rotational entropy values for sn=1,12 :
 --------------------------------------------------------
|  sn= 1 | S(rot)=       0.01068845 Eh      6.71 kcal/mol|
|  sn= 2 | S(rot)=       0.01003399 Eh      6.30 kcal/mol|
|  sn= 3 | S(rot)=       0.00965116 Eh      6.06 kcal/mol|
|  sn= 4 | S(rot)=       0.00937953 Eh      5.89 kcal/mol|
|  sn= 5 | S(rot)=       0.00916884 Eh      5.75 kcal/mol|
|  sn= 6 | S(rot)=       0.00899670 Eh      5.65 kcal/mol|
|  sn= 7 | S(rot)=       0.00885115 Eh      5.55 kcal/mol|
|  sn= 8 | S(rot)=       0.00872508 Eh      5.48 kcal/mol|
|  sn= 9 | S(rot)=       0.00861387 Eh      5.41 kcal/mol|
|  sn=10 | S(rot)=       0.00851439 Eh      5.34 kcal/mol|
|  sn=11 | S(rot)=       0.00842440 Eh      5.29 kcal/mol|
|  sn=12 | S(rot)=       0.00834224 Eh      5.23 kcal/mol|
 --------------------------------------------------------


-------------------
GIBBS FREE ENERGY
-------------------

The Gibbs free energy is G = H - T*S

Total enthalpy                    ...   -546.16717342 Eh 
Total entropy correction          ...     -0.03063759 Eh    -19.23 kcal/mol
-----------------------------------------------------------------------
Final Gibbs free energy         ...   -546.19781101 Eh

For completeness - the Gibbs free energy minus the electronic energy
G-E(el)                           ...     -0.02364106 Eh    -14.83 kcal/mol


Total Time for Numerical Frequencies  :       111.451 sec

Timings for individual modules:

Sum of individual times         ...       83.661 sec (=   1.394 min)
GTO integral calculation        ...        2.015 sec (=   0.034 min)   2.4 %
SCF iterations                  ...       70.553 sec (=   1.176 min)  84.3 %
SCF Gradient evaluation         ...       10.856 sec (=   0.181 min)  13.0 %
Geometry relaxation             ...        0.237 sec (=   0.004 min)   0.3 %
                             ****ORCA TERMINATED NORMALLY****
TOTAL RUN TIME: 0 days 0 hours 3 minutes 12 seconds 986 msec
