
                                 *****************
                                 * O   R   C   A *
                                 *****************

           --- An Ab Initio, DFT and Semiempirical electronic structure package ---

                  #######################################################
                  #                        -***-                        #
                  #          Department of theory and spectroscopy      #
                  #               Directorship: Frank Neese             #
                  #        Max Planck Institute fuer Kohlenforschung    #
                  #                Kaiser Wilhelm Platz 1               #
                  #                 D-45470 Muelheim/Ruhr               #
                  #                      Germany                        #
                  #                                                     #
                  #                  All rights reserved                #
                  #                        -***-                        #
                  #######################################################


                         Program Version 4.2.1 -  RELEASE  -


 With contributions from (in alphabetic order):
   Daniel Aravena         : Magnetic Suceptibility
   Michael Atanasov       : Ab Initio Ligand Field Theory (pilot matlab implementation)
   Alexander A. Auer      : GIAO ZORA, VPT2
   Ute Becker             : Parallelization
   Giovanni Bistoni       : ED, misc. LED, open-shell LED, HFLD
   Martin Brehm           : Molecular dynamics
   Dmytro Bykov           : SCF Hessian
   Vijay G. Chilkuri      : MRCI spin determinant printing, contributions to CSF-ICE
   Dipayan Datta          : RHF DLPNO-CCSD density
   Achintya Kumar Dutta   : EOM-CC, STEOM-CC
   Dmitry Ganyushin       : Spin-Orbit,Spin-Spin,Magnetic field MRCI
   Miquel Garcia          : C-PCM Hessian, Gaussian charge scheme
   Yang Guo               : DLPNO-NEVPT2, CIM, IAO-localization
   Andreas Hansen         : Spin unrestricted coupled pair/coupled cluster methods
   Benjamin Helmich-Paris : CASSCF linear response (MC-RPA)
   Lee Huntington         : MR-EOM, pCC
   Robert Izsak           : Overlap fitted RIJCOSX, COSX-SCS-MP3, EOM
   Christian Kollmar      : KDIIS, OOCD, Brueckner-CCSD(T), CCSD density
   Simone Kossmann        : Meta GGA functionals, TD-DFT gradient, OOMP2, MP2 Hessian
   Martin Krupicka        : AUTO-CI
   Lucas Lang             : DCDCAS
   Dagmar Lenk            : GEPOL surface, SMD
   Dimitrios Liakos       : Extrapolation schemes; Compound Job, initial MDCI parallelization
   Dimitrios Manganas     : Further ROCIS development; embedding schemes
   Dimitrios Pantazis     : SARC Basis sets
   Taras Petrenko         : DFT Hessian,TD-DFT gradient, ASA, ECA, R-Raman, ABS, FL, XAS/XES, NRVS
   Peter Pinski           : DLPNO-MP2, DLPNO-MP2 Gradient
   Christoph Reimann      : Effective Core Potentials
   Marius Retegan         : Local ZFS, SOC
   Christoph Riplinger    : Optimizer, TS searches, QM/MM, DLPNO-CCSD(T), (RO)-DLPNO pert. Triples
   Tobias Risthaus        : Range-separated hybrids, TD-DFT gradient, RPA, STAB
   Michael Roemelt        : Original ROCIS implementation
   Masaaki Saitow         : Open-shell DLPNO-CCSD energy and density
   Barbara Sandhoefer     : DKH picture change effects
   Avijit Sen             : IP-ROCIS
   Kantharuban Sivalingam : CASSCF convergence, NEVPT2, FIC-MRCI
   Bernardo de Souza      : ESD, SOC TD-DFT
   Georgi Stoychev        : AutoAux, RI-MP2 NMR
   Willem Van den Heuvel  : Paramagnetic NMR
   Boris Wezisla          : Elementary symmetry handling
   Frank Wennmohs         : Technical directorship


 We gratefully acknowledge several colleagues who have allowed us to
 interface, adapt or use parts of their codes:
   Stefan Grimme, W. Hujo, H. Kruse,             : VdW corrections, initial TS optimization,
                  C. Bannwarth                     DFT functionals, gCP, sTDA/sTD-DF
   Ed Valeev, F. Pavosevic, A. Kumar             : LibInt (2-el integral package), F12 methods
   Garnet Chan, S. Sharma, J. Yang, R. Olivares  : DMRG
   Ulf Ekstrom                                   : XCFun DFT Library
   Mihaly Kallay                                 : mrcc  (arbitrary order and MRCC methods)
   Andreas Klamt, Michael Diedenhofen            : otool_cosmo (COSMO solvation model)
   Jiri Pittner, Ondrej Demel                    : Mk-CCSD
   Frank Weinhold                                : gennbo (NPA and NBO analysis)
   Christopher J. Cramer and Donald G. Truhlar   : smd solvation model
   Lars Goerigk                                  : TD-DFT with DH, B97 family of functionals
   V. Asgeirsson, H. Jonsson                     : NEB implementation
   FAccTs GmbH                                   : IRC, NEB, NEB-TS, Multilevel, MM, QM/MM, CI optimization
   S Lehtola, MJT Oliveira, MAL Marques          : LibXC Library


 Your calculation uses the libint2 library for the computation of 2-el integrals
 For citations please refer to: http://libint.valeyev.net

 Your ORCA version has been built with support for libXC version: 4.2.3
 For citations please refer to: https://tddft.org/programs/libxc/

 This ORCA versions uses:
   CBLAS   interface :  Fast vector & matrix operations
   LAPACKE interface :  Fast linear algebra routines


SCAN-COORDS
----- Orbital basis set information -----
Your calculation utilizes the basis: def2-TZVP
   F. Weigend and R. Ahlrichs, Phys. Chem. Chem. Phys. 7, 3297 (2005).

----- AuxJ basis set information -----
Your calculation utilizes the auxiliary basis: def2/J
   F. Weigend, Phys. Chem. Chem. Phys. 8, 1057 (2006).

================================================================================
                                        WARNINGS
                       Please study these warnings very carefully!
================================================================================


WARNING: your system is open-shell and RHF/RKS was chosen
  ===> : WILL SWITCH to UHF/UKS


WARNING: The environment variable RSH_COMMAND is not set!
  ===> : All Displacements for the Numerical Hessian calculation
         will be started on localhost

WARNING: Geometry Optimization
  ===> : Switching off AutoStart
         For restart on a previous wavefunction, please use MOREAD

INFO   : the flag for use of LIBINT has been found!

================================================================================
                                       INPUT FILE
================================================================================
NAME = PH2N_PBE.inp
|  1> ! PAL5 PBE
|  2> %method
|  3>         method DFT
|  4>         runtyp OPT
|  5> 	#func VWN
|  6> end
|  7> %basis
|  8>         basis "def2-TZVP"
|  9> end
| 10> ! NumFreq
| 11> %output
| 12>         XYZFile true
| 13> end
| 14> %coords
| 15>         CTyp xyz
| 16>         Charge -1
| 17>         Mult 2
| 18>         Units Angs
| 19>         coords
| 20>         S       -1.3964703605      0.5346218729     -0.0392481365                 
| 21> 	O        0.1725606238      0.5123737189     -0.0821591799                 
| 22> 	O       -1.9650463708      1.2081038033      1.2597276053
| 23>         end
| 24> endd                         ****END OF INPUT****
================================================================================

                       *****************************
                       * Geometry Optimization Run *
                       *****************************

Geometry optimization settings:
Update method            Update   .... BFGS
Choice of coordinates    CoordSys .... Z-matrix Internals
Initial Hessian          InHess   .... Almoef's Model

Convergence Tolerances:
Energy Change            TolE     ....  5.0000e-06 Eh
Max. Gradient            TolMAXG  ....  3.0000e-04 Eh/bohr
RMS Gradient             TolRMSG  ....  1.0000e-04 Eh/bohr
Max. Displacement        TolMAXD  ....  4.0000e-03 bohr
RMS Displacement         TolRMSD  ....  2.0000e-03 bohr
Strict Convergence                ....  False
------------------------------------------------------------------------------
                        ORCA OPTIMIZATION COORDINATE SETUP
------------------------------------------------------------------------------

The optimization will be done in new redundant internal coordinates
Making redundant internal coordinates   ...  (new redundants) done
Evaluating the initial hessian          ...  (Almloef) done
Evaluating the coordinates              ...  done
Calculating the B-matrix                .... done
Calculating the G-matrix                .... done
Diagonalizing the G-matrix              .... done
The first mode is                       ....    0
The number of degrees of freedom        ....    3

    -----------------------------------------------------------------
                    Redundant Internal Coordinates


    -----------------------------------------------------------------
         Definition                    Initial Value    Approx d2E/dq
    -----------------------------------------------------------------
      1. B(O   1,S   0)                  1.5698         0.779513   
      2. B(O   2,S   0)                  1.5698         0.779513   
      3. A(O   1,S   0,O   2)          113.0000         0.521263   
    -----------------------------------------------------------------

Number of atoms                         .... 3
Number of degrees of freedom            .... 3

         *************************************************************
         *                GEOMETRY OPTIMIZATION CYCLE   1            *
         *************************************************************
---------------------------------
CARTESIAN COORDINATES (ANGSTROEM)
---------------------------------
  S     -1.396470    0.534622   -0.039248
  O      0.172561    0.512374   -0.082159
  O     -1.965046    1.208104    1.259728

----------------------------
CARTESIAN COORDINATES (A.U.)
----------------------------
  NO LB      ZA    FRAG     MASS         X           Y           Z
   0 S    16.0000    0    32.060   -2.638947    1.010289   -0.074168
   1 O     8.0000    0    15.999    0.326092    0.968246   -0.155258
   2 O     8.0000    0    15.999   -3.713399    2.282985    2.380540

--------------------------------
INTERNAL COORDINATES (ANGSTROEM)
--------------------------------
 S      0   0   0     0.000000000000     0.00000000     0.00000000
 O      1   0   0     1.569775323954     0.00000000     0.00000000
 O      1   2   0     1.569775324003   112.99999967     0.00000000

---------------------------
INTERNAL COORDINATES (A.U.)
---------------------------
 S      0   0   0     0.000000000000     0.00000000     0.00000000
 O      1   0   0     2.966445454061     0.00000000     0.00000000
 O      1   2   0     2.966445454153   112.99999967     0.00000000

---------------------
BASIS SET INFORMATION
---------------------
There are 2 groups of distinct atoms

 Group   1 Type S   : 14s9p3d1f contracted to 5s5p2d1f pattern {73211/51111/21/1}
 Group   2 Type O   : 11s6p2d1f contracted to 5s3p2d1f pattern {62111/411/11/1}

Atom   0S    basis set group =>   1
Atom   1O    basis set group =>   2
Atom   2O    basis set group =>   2
---------------------------------
AUXILIARY/J BASIS SET INFORMATION
---------------------------------
There are 2 groups of distinct atoms

 Group   1 Type S   : 14s5p5d2f1g contracted to 8s4p3d1f1g pattern {71111111/2111/311/2/1}
 Group   2 Type O   : 12s5p4d2f1g contracted to 6s4p3d1f1g pattern {711111/2111/211/2/1}

Atom   0S    basis set group =>   1
Atom   1O    basis set group =>   2
Atom   2O    basis set group =>   2


           ************************************************************
           *        Program running with 5 parallel MPI-processes     *
           *              working on a common directory               *
           ************************************************************
------------------------------------------------------------------------------
                           ORCA GTO INTEGRAL CALCULATION
                           -- RI-GTO INTEGRALS CHOSEN --
------------------------------------------------------------------------------

                         BASIS SET STATISTICS AND STARTUP INFO

Gaussian basis set:
 # of primitive gaussian shells          ...   67
 # of primitive gaussian functions       ...  155
 # of contracted shells                  ...   35
 # of contracted basis functions         ...   99
 Highest angular momentum                ...    3
 Maximum contraction depth               ...    7
Auxiliary gaussian basis set:
 # of primitive gaussian shells          ...   75
 # of primitive gaussian functions       ...  217
 # of contracted shells                  ...   47
 # of contracted aux-basis functions     ...  149
 Highest angular momentum                ...    4
 Maximum contraction depth               ...    7
Ratio of auxiliary to basis functions    ...  1.51
Integral package used                  ... LIBINT
 One Electron integrals                  ... done
 Ordering auxiliary basis shells         ... done
 Integral threshhold             Thresh  ...  2.500e-11
 Primitive cut-off               TCut    ...  2.500e-12
 Pre-screening matrix                    ... done
 Shell pair data                         ... 
 Ordering of the shell pairs             ... done (   0.001 sec) 606 of 630 pairs
 Determination of significant pairs      ... done (   0.000 sec)
 Creation of shell pair data             ... done (   0.000 sec)
 Storage of shell pair data              ... done (   0.007 sec)
 Shell pair data done in (   0.008 sec)
 Computing two index integrals           ... done
 Cholesky decomposition of the V-matrix  ... done


Timings:
 Total evaluation time                   ...   0.295 sec (  0.005 min)
 One electron matrix time                ...   0.022 sec (  0.000 min) =  7.5%
 Schwartz matrix evaluation time         ...   0.230 sec (  0.004 min) = 78.0%
 Two index repulsion integral time       ...   0.002 sec (  0.000 min) =  0.7%
 Cholesky decomposition of V             ...   0.011 sec (  0.000 min) =  3.7%



           ************************************************************
           *        Program running with 5 parallel MPI-processes     *
           *              working on a common directory               *
           ************************************************************
-------------------------------------------------------------------------------
                                 ORCA SCF
-------------------------------------------------------------------------------

------------
SCF SETTINGS
------------
Hamiltonian:
 Density Functional     Method          .... DFT(GTOs)
 Exchange Functional    Exchange        .... PBE
   PBE kappa parameter   XKappa         ....  0.804000
   PBE mue parameter    XMuePBE         ....  0.219520
 Correlation Functional Correlation     .... PBE
   PBE beta parameter  CBetaPBE         ....  0.066725
 LDA part of GGA corr.  LDAOpt          .... PW91-LDA
 Gradients option       PostSCFGGA      .... off
   Density functional embedding theory  .... OFF
   NL short-range parameter             ....  6.400000
 RI-approximation to the Coulomb term is turned on
   Number of auxiliary basis functions  .... 149


General Settings:
 Integral files         IntName         .... PH2N_PBE
 Hartree-Fock type      HFTyp           .... UHF
 Total Charge           Charge          ....   -1
 Multiplicity           Mult            ....    2
 Number of Electrons    NEL             ....   33
 Basis Dimension        Dim             ....   99
 Nuclear Repulsion      ENuc            ....     99.2347787323 Eh

Convergence Acceleration:
 DIIS                   CNVDIIS         .... on
   Start iteration      DIISMaxIt       ....    12
   Startup error        DIISStart       ....  0.200000
   # of expansion vecs  DIISMaxEq       ....     5
   Bias factor          DIISBfac        ....   1.050
   Max. coefficient     DIISMaxC        ....  10.000
 Newton-Raphson         CNVNR           .... off
 SOSCF                  CNVSOSCF        .... off
 Level Shifting         CNVShift        .... on
   Level shift para.    LevelShift      ....    0.2500
   Turn off err/grad.   ShiftErr        ....    0.0010
 Zerner damping         CNVZerner       .... off
 Static damping         CNVDamp         .... on
   Fraction old density DampFac         ....    0.7000
   Max. Damping (<1)    DampMax         ....    0.9800
   Min. Damping (>=0)   DampMin         ....    0.0000
   Turn off err/grad.   DampErr         ....    0.1000
 Fernandez-Rico         CNVRico         .... off

SCF Procedure:
 Maximum # iterations   MaxIter         ....   125
 SCF integral mode      SCFMode         .... Direct
   Integral package                     .... LIBINT
 Reset frequency        DirectResetFreq ....    20
 Integral Threshold     Thresh          ....  2.500e-11 Eh
 Primitive CutOff       TCut            ....  2.500e-12 Eh

Convergence Tolerance:
 Convergence Check Mode ConvCheckMode   .... Total+1el-Energy
 Convergence forced     ConvForced      .... 0
 Energy Change          TolE            ....  1.000e-08 Eh
 1-El. energy change                    ....  1.000e-05 Eh
 DIIS Error             TolErr          ....  5.000e-07


Diagonalization of the overlap matrix:
Smallest eigenvalue                        ... 2.852e-03
Time for diagonalization                   ...    0.018 sec
Threshold for overlap eigenvalues          ... 1.000e-08
Number of eigenvalues below threshold      ... 0
Time for construction of square roots      ...    0.006 sec
Total time needed                          ...    0.024 sec

-------------------
DFT GRID GENERATION
-------------------

General Integration Accuracy     IntAcc      ...  4.340
Radial Grid Type                 RadialGrid  ... Gauss-Chebyshev
Angular Grid (max. acc.)         AngularGrid ... Lebedev-110
Angular grid pruning method      GridPruning ... 3 (G Style)
Weight generation scheme         WeightScheme... Becke
Basis function cutoff            BFCut       ...    1.0000e-11
Integration weight cutoff        WCut        ...    1.0000e-14
Grids for H and He will be reduced by one unit

# of grid points (after initial pruning)     ...   5238 (   0.0 sec)
# of grid points (after weights+screening)   ...   5195 (   0.0 sec)
nearest neighbour list constructed           ...    0.0 sec
Grid point re-assignment to atoms done       ...    0.0 sec
Grid point division into batches done        ...    0.0 sec
Reduced shell lists constructed in    0.0 sec

Total number of grid points                  ...     5195
Total number of batches                      ...       82
Average number of points per batch           ...       63
Average number of grid points per atom       ...     1732
Average number of shells per batch           ...    25.83 (73.81%)
Average number of basis functions per batch  ...    77.94 (78.73%)
Average number of large shells per batch     ...    22.72 (87.96%)
Average number of large basis fcns per batch ...    68.83 (88.31%)
Maximum spatial batch extension              ...  18.39, 17.75, 17.75 au
Average spatial batch extension              ...   1.35,  1.39,  1.33 au

Time for grid setup =    0.028 sec

------------------------------
INITIAL GUESS: MODEL POTENTIAL
------------------------------
Loading Hartree-Fock densities                     ... done
Calculating cut-offs                               ... done
Setting up the integral package                    ... done
Initializing the effective Hamiltonian             ... done
Starting the Coulomb interaction                   ... done (   0.0 sec)
Reading the grid                                   ... done
Mapping shells                                     ... done
Starting the XC term evaluation                    ... done (   0.0 sec)
  promolecular density results
     # of electrons  =     32.000144950
     EX              =    -41.117460329
     EC              =     -1.156736588
     EX+EC           =    -42.274196917
Transforming the Hamiltonian                       ... done (   0.0 sec)
Diagonalizing the Hamiltonian                      ... done (   0.0 sec)
Back transforming the eigenvectors                 ... done (   0.0 sec)
Now organizing SCF variables                       ... done
                      ------------------
                      INITIAL GUESS DONE (   0.2 sec)
                      ------------------
--------------
SCF ITERATIONS
--------------
ITER       Energy         Delta-E        Max-DP      RMS-DP      [F,P]     Damp
               ***  Starting incremental Fock matrix formation  ***
  0   -548.1724344179   0.000000000000 0.03652697  0.00199930  0.3428826 0.7000
  1   -548.3154210292  -0.142986611297 0.01850183  0.00110797  0.0843570 0.7000
                               ***Turning on DIIS***
  2   -548.3392620650  -0.023841035869 0.06430250  0.00155192  0.0397547 0.0000
  3   -548.4301507767  -0.090888711701 0.02358861  0.00087061  0.0243567 0.0000
  4   -548.4311591124  -0.001008335612 0.00379171  0.00022104  0.0334761 0.0000
  5   -548.4332160467  -0.002056934307 0.00166016  0.00008617  0.0103488 0.0000
  6   -548.4334895371  -0.000273490419 0.00090880  0.00002892  0.0030386 0.0000
  7   -548.4335155704  -0.000026033333 0.00064708  0.00002011  0.0007956 0.0000
  8   -548.4335170027  -0.000001432268 0.00026493  0.00001090  0.0009666 0.0000
  9   -548.4335186093  -0.000001606634 0.00008506  0.00000466  0.0005600 0.0000
 10   -548.4335191379  -0.000000528549 0.00002914  0.00000105  0.0000660 0.0000
 11   -548.4335191587  -0.000000020871 0.00001656  0.00000043  0.0000174 0.0000
 12   -548.4335191513   0.000000007406 0.00000546  0.00000016  0.0000063 0.0000
 13   -548.4335191559  -0.000000004611 0.00000276  0.00000008  0.0000023 0.0000
                 **** Energy Check signals convergence ****

               *****************************************************
               *                     SUCCESS                       *
               *           SCF CONVERGED AFTER  14 CYCLES          *
               *****************************************************

Setting up the final grid:

General Integration Accuracy     IntAcc      ...  4.670
Radial Grid Type                 RadialGrid  ... Gauss-Chebyshev
Angular Grid (max. acc.)         AngularGrid ... Lebedev-302
Angular grid pruning method      GridPruning ... 3 (G Style)
Weight generation scheme         WeightScheme... Becke
Basis function cutoff            BFCut       ...    1.0000e-11
Integration weight cutoff        WCut        ...    1.0000e-14
Grids for H and He will be reduced by one unit

# of grid points (after initial pruning)     ...  19270 (   0.0 sec)
# of grid points (after weights+screening)   ...  19125 (   0.0 sec)
nearest neighbour list constructed           ...    0.0 sec
Grid point re-assignment to atoms done       ...    0.0 sec
Grid point division into batches done        ...    0.1 sec
Reduced shell lists constructed in    0.1 sec

Total number of grid points                  ...    19125
Total number of batches                      ...      300
Average number of points per batch           ...       63
Average number of grid points per atom       ...     6375
Average number of shells per batch           ...    22.75 (65.01%)
Average number of basis functions per batch  ...    69.15 (69.85%)
Average number of large shells per batch     ...    19.56 (85.95%)
Average number of large basis fcns per batch ...    59.39 (85.89%)
Maximum spatial batch extension              ...  16.41, 19.94, 16.60 au
Average spatial batch extension              ...   0.74,  0.85,  0.81 au

Final grid set up in    0.1 sec
Final integration                            ... done (   0.1 sec)
Change in XC energy                          ...     0.000183970
Integrated number of electrons               ...    32.999993590
Previous integrated no of electrons          ...    33.000189338

----------------
TOTAL SCF ENERGY
----------------

Total Energy       :         -548.43333518 Eh          -14923.62975 eV

Components:
Nuclear Repulsion  :           99.23477873 Eh            2700.31561 eV
Electronic Energy  :         -647.66811391 Eh          -17623.94536 eV
One Electron Energy:         -963.03317171 Eh          -26205.46486 eV
Two Electron Energy:          315.36505780 Eh            8581.51950 eV

Virial components:
Potential Energy   :        -1095.66570286 Eh          -29814.57952 eV
Kinetic Energy     :          547.23236768 Eh           14890.94977 eV
Virial Ratio       :            2.00219462


DFT components:
N(Alpha)           :       16.999996665289 electrons
N(Beta)            :       15.999996924903 electrons
N(Total)           :       32.999993590192 electrons
E(X)               :      -41.573649762703 Eh       
E(C)               :       -1.193498390543 Eh       
E(XC)              :      -42.767148153246 Eh       
DFET-embed. en.    :        0.000000000000 Eh       

---------------
SCF CONVERGENCE
---------------

  Last Energy change         ...    4.0814e-09  Tolerance :   1.0000e-08
  Last MAX-Density change    ...    8.6437e-07  Tolerance :   1.0000e-07
  Last RMS-Density change    ...    3.4343e-08  Tolerance :   5.0000e-09
  Last DIIS Error            ...    4.8534e-07  Tolerance :   5.0000e-07

             **** THE GBW FILE WAS UPDATED (PH2N_PBE.gbw) ****
             **** DENSITY FILE WAS UPDATED (PH2N_PBE.scfp) ****
             **** ENERGY FILE WAS UPDATED (PH2N_PBE.en.tmp) ****
----------------------
UHF SPIN CONTAMINATION
----------------------

Warning: in a DFT calculation there is little theoretical justification to 
         calculate <S**2> as in Hartree-Fock theory. We will do it anyways
         but you should keep in mind that the values have only limited relevance

Expectation value of <S**2>     :     0.752453
Ideal value S*(S+1) for S=0.5   :     0.750000
Deviation                       :     0.002453

             **** THE GBW FILE WAS UPDATED (PH2N_PBE.gbw) ****
             **** DENSITY FILE WAS UPDATED (PH2N_PBE.scfp) ****
----------------
ORBITAL ENERGIES
----------------
                 SPIN UP ORBITALS
  NO   OCC          E(Eh)            E(eV) 
   0   1.0000     -87.895235     -2391.7509 
   1   1.0000     -18.500251      -503.4174 
   2   1.0000     -18.500127      -503.4140 
   3   1.0000      -7.504728      -204.2140 
   4   1.0000      -5.526752      -150.3906 
   5   1.0000      -5.522972      -150.2877 
   6   1.0000      -5.521564      -150.2494 
   7   1.0000      -0.699324       -19.0296 
   8   1.0000      -0.625782       -17.0284 
   9   1.0000      -0.316818        -8.6211 
  10   1.0000      -0.146534        -3.9874 
  11   1.0000      -0.133547        -3.6340 
  12   1.0000      -0.131624        -3.5817 
  13   1.0000      -0.036833        -1.0023 
  14   1.0000      -0.012778        -0.3477 
  15   1.0000      -0.010995        -0.2992 
  16   1.0000       0.086138         2.3439 
  17   0.0000       0.238324         6.4851 
  18   0.0000       0.239662         6.5215 
  19   0.0000       0.427066        11.6211 
  20   0.0000       0.433036        11.7835 
  21   0.0000       0.469874        12.7859 
  22   0.0000       0.535147        14.5621 
  23   0.0000       0.550876        14.9901 
  24   0.0000       0.552556        15.0358 
  25   0.0000       0.580613        15.7993 
  26   0.0000       0.585347        15.9281 
  27   0.0000       0.608033        16.5454 
  28   0.0000       0.664385        18.0788 
  29   0.0000       0.678200        18.4548 
  30   0.0000       0.699392        19.0314 
  31   0.0000       0.739836        20.1320 
  32   0.0000       0.754827        20.5399 
  33   0.0000       0.876469        23.8499 
  34   0.0000       0.957776        26.0624 
  35   0.0000       1.024881        27.8884 
  36   0.0000       1.464965        39.8637 
  37   0.0000       1.504389        40.9365 
  38   0.0000       1.520696        41.3802 
  39   0.0000       1.530137        41.6371 
  40   0.0000       1.581056        43.0227 
  41   0.0000       1.629286        44.3351 
  42   0.0000       1.645233        44.7691 
  43   0.0000       1.671345        45.4796 
  44   0.0000       1.680508        45.7289 
  45   0.0000       1.700578        46.2751 
  46   0.0000       1.751405        47.6582 
  47   0.0000       1.756696        47.8021 
  48   0.0000       1.899443        51.6865 
  49   0.0000       1.903695        51.8022 
  50   0.0000       1.930066        52.5198 
  51   0.0000       1.964299        53.4513 
  52   0.0000       2.043663        55.6109 
  53   0.0000       2.211046        60.1656 
  54   0.0000       2.279429        62.0264 
  55   0.0000       2.301523        62.6276 
  56   0.0000       2.382008        64.8177 
  57   0.0000       2.393757        65.1374 
  58   0.0000       2.473547        67.3086 
  59   0.0000       2.506732        68.2116 
  60   0.0000       2.533707        68.9457 
  61   0.0000       2.867870        78.0387 
  62   0.0000       2.871928        78.1491 
  63   0.0000       2.890415        78.6522 
  64   0.0000       2.948309        80.2276 
  65   0.0000       2.962707        80.6194 
  66   0.0000       3.018142        82.1278 
  67   0.0000       3.478621        94.6581 
  68   0.0000       3.983285       108.3907 
  69   0.0000       5.247823       142.8005 
  70   0.0000       5.257838       143.0730 
  71   0.0000       5.263033       143.2144 
  72   0.0000       5.263519       143.2276 
  73   0.0000       5.268438       143.3615 
  74   0.0000       5.283407       143.7688 
  75   0.0000       5.292397       144.0134 
  76   0.0000       5.341384       145.3464 
  77   0.0000       5.369557       146.1131 
  78   0.0000       5.451507       148.3430 
  79   0.0000       5.474435       148.9670 
  80   0.0000       5.476835       149.0322 
  81   0.0000       5.553343       151.1142 
  82   0.0000       5.654417       153.8645 
  83   0.0000       6.333449       172.3419 
  84   0.0000       6.367979       173.2815 
  85   0.0000       6.371208       173.3694 
  86   0.0000       6.384988       173.7444 
  87   0.0000       6.664665       181.3548 
  88   0.0000       6.680802       181.7939 
  89   0.0000       6.685551       181.9231 
  90   0.0000       6.762911       184.0282 
  91   0.0000       6.852616       186.4692 
  92   0.0000       6.936652       188.7559 
  93   0.0000       8.826462       240.1802 
  94   0.0000       9.070635       246.8245 
  95   0.0000       9.387556       255.4484 
  96   0.0000      19.751970       537.4784 
  97   0.0000      42.960908      1169.0257 
  98   0.0000      43.155326      1174.3161 

                 SPIN DOWN ORBITALS
  NO   OCC          E(Eh)            E(eV) 
   0   1.0000     -87.892687     -2391.6816 
   1   1.0000     -18.494035      -503.2483 
   2   1.0000     -18.493900      -503.2446 
   3   1.0000      -7.502321      -204.1485 
   4   1.0000      -5.525221      -150.3489 
   5   1.0000      -5.520191      -150.2120 
   6   1.0000      -5.515778      -150.0919 
   7   1.0000      -0.689010       -18.7489 
   8   1.0000      -0.614226       -16.7139 
   9   1.0000      -0.298901        -8.1335 
  10   1.0000      -0.139618        -3.7992 
  11   1.0000      -0.124766        -3.3951 
  12   1.0000      -0.106896        -2.9088 
  13   1.0000      -0.010600        -0.2884 
  14   1.0000      -0.007328        -0.1994 
  15   1.0000      -0.002410        -0.0656 
  16   0.0000       0.124815         3.3964 
  17   0.0000       0.246805         6.7159 
  18   0.0000       0.250926         6.8280 
  19   0.0000       0.432695        11.7742 
  20   0.0000       0.450600        12.2614 
  21   0.0000       0.474718        12.9177 
  22   0.0000       0.541572        14.7369 
  23   0.0000       0.568966        15.4824 
  24   0.0000       0.572305        15.5732 
  25   0.0000       0.584072        15.8934 
  26   0.0000       0.607650        16.5350 
  27   0.0000       0.610614        16.6157 
  28   0.0000       0.674517        18.3545 
  29   0.0000       0.680676        18.5221 
  30   0.0000       0.713519        19.4159 
  31   0.0000       0.742505        20.2046 
  32   0.0000       0.764825        20.8119 
  33   0.0000       0.879647        23.9364 
  34   0.0000       0.961550        26.1651 
  35   0.0000       1.039337        28.2818 
  36   0.0000       1.476948        40.1898 
  37   0.0000       1.516651        41.2702 
  38   0.0000       1.534561        41.7575 
  39   0.0000       1.537881        41.8479 
  40   0.0000       1.583670        43.0939 
  41   0.0000       1.648947        44.8701 
  42   0.0000       1.667247        45.3681 
  43   0.0000       1.681952        45.7682 
  44   0.0000       1.692226        46.0478 
  45   0.0000       1.715427        46.6792 
  46   0.0000       1.756021        47.7838 
  47   0.0000       1.771560        48.2066 
  48   0.0000       1.909669        51.9647 
  49   0.0000       1.933736        52.6196 
  50   0.0000       1.948852        53.0310 
  51   0.0000       1.984290        53.9953 
  52   0.0000       2.058790        56.0225 
  53   0.0000       2.216656        60.3183 
  54   0.0000       2.285918        62.2030 
  55   0.0000       2.306316        62.7580 
  56   0.0000       2.405079        65.4455 
  57   0.0000       2.413265        65.6683 
  58   0.0000       2.479700        67.4761 
  59   0.0000       2.512482        68.3681 
  60   0.0000       2.539697        69.1087 
  61   0.0000       2.878195        78.3197 
  62   0.0000       2.894685        78.7684 
  63   0.0000       2.915073        79.3232 
  64   0.0000       2.957618        80.4809 
  65   0.0000       2.972692        80.8911 
  66   0.0000       3.023892        82.2843 
  67   0.0000       3.485288        94.8395 
  68   0.0000       3.990157       108.5777 
  69   0.0000       5.260141       143.1357 
  70   0.0000       5.275036       143.5410 
  71   0.0000       5.280876       143.6999 
  72   0.0000       5.282465       143.7432 
  73   0.0000       5.286370       143.8494 
  74   0.0000       5.294754       144.0776 
  75   0.0000       5.299809       144.2151 
  76   0.0000       5.355674       145.7353 
  77   0.0000       5.382160       146.4560 
  78   0.0000       5.468568       148.8073 
  79   0.0000       5.487831       149.3315 
  80   0.0000       5.492624       149.4619 
  81   0.0000       5.556477       151.1994 
  82   0.0000       5.656334       153.9167 
  83   0.0000       6.359719       173.0568 
  84   0.0000       6.394405       174.0006 
  85   0.0000       6.397161       174.0756 
  86   0.0000       6.411099       174.4549 
  87   0.0000       6.689695       182.0359 
  88   0.0000       6.690656       182.0620 
  89   0.0000       6.706740       182.4997 
  90   0.0000       6.766534       184.1267 
  91   0.0000       6.863434       186.7635 
  92   0.0000       6.946050       189.0116 
  93   0.0000       8.843672       240.6485 
  94   0.0000       9.073806       246.9108 
  95   0.0000       9.391412       255.5533 
  96   0.0000      19.757596       537.6315 
  97   0.0000      42.967862      1169.2150 
  98   0.0000      43.162285      1174.5055 

                    ********************************
                    * MULLIKEN POPULATION ANALYSIS *
                    ********************************

--------------------------------------------
MULLIKEN ATOMIC CHARGES AND SPIN POPULATIONS
--------------------------------------------
   0 S :    0.164365    0.520771
   1 O :   -0.582418    0.239390
   2 O :   -0.581947    0.239839
Sum of atomic charges         :   -1.0000000
Sum of atomic spin populations:    1.0000000

-----------------------------------------------------
MULLIKEN REDUCED ORBITAL CHARGES AND SPIN POPULATIONS
-----------------------------------------------------
CHARGE
  0 S s       :     5.878341  s :     5.878341
      pz      :     3.123107  p :     9.445923
      px      :     2.913700
      py      :     3.409116
      dz2     :     0.087476  d :     0.465449
      dxz     :     0.138671
      dyz     :     0.050924
      dx2y2   :     0.082920
      dxy     :     0.105458
      f0      :     0.009625  f :     0.045922
      f+1     :     0.006228
      f-1     :     0.004426
      f+2     :     0.009921
      f-2     :     0.003149
      f+3     :     0.004225
      f-3     :     0.008349
  1 O s       :     3.868395  s :     3.868395
      pz      :     1.714523  p :     4.689305
      px      :     1.310795
      py      :     1.663987
      dz2     :     0.002722  d :     0.023435
      dxz     :     0.006116
      dyz     :     0.000078
      dx2y2   :     0.007752
      dxy     :     0.006766
      f0      :     0.000125  f :     0.001283
      f+1     :     0.000225
      f-1     :     0.000026
      f+2     :     0.000215
      f-2     :     0.000004
      f+3     :     0.000357
      f-3     :     0.000331
  2 O s       :     3.868859  s :     3.868859
      pz      :     1.432301  p :     4.688393
      px      :     1.668427
      py      :     1.587665
      dz2     :     0.007057  d :     0.023411
      dxz     :     0.005884
      dyz     :     0.006272
      dx2y2   :     0.002009
      dxy     :     0.002188
      f0      :     0.000263  f :     0.001284
      f+1     :     0.000262
      f-1     :     0.000264
      f+2     :     0.000189
      f-2     :     0.000233
      f+3     :     0.000038
      f-3     :     0.000035

SPIN
  0 S s       :     0.002099  s :     0.002099
      pz      :     0.100560  p :     0.493572
      px      :    -0.006121
      py      :     0.399133
      dz2     :     0.007451  d :     0.024659
      dxz     :    -0.000036
      dyz     :     0.006878
      dx2y2   :     0.005616
      dxy     :     0.004750
      f0      :    -0.000075  f :     0.000441
      f+1     :     0.000171
      f-1     :    -0.000373
      f+2     :     0.000570
      f-2     :     0.000064
      f+3     :    -0.000319
      f-3     :     0.000403
  1 O s       :     0.003230  s :     0.003230
      pz      :     0.049899  p :     0.236559
      px      :     0.002569
      py      :     0.184092
      dz2     :    -0.000024  d :    -0.000304
      dxz     :    -0.000118
      dyz     :     0.000006
      dx2y2   :     0.000111
      dxy     :    -0.000279
      f0      :     0.000005  f :    -0.000095
      f+1     :    -0.000001
      f-1     :     0.000005
      f+2     :    -0.000025
      f-2     :     0.000001
      f+3     :    -0.000039
      f-3     :    -0.000043
  2 O s       :     0.003240  s :     0.003240
      pz      :     0.051284  p :     0.237008
      px      :     0.000940
      py      :     0.184784
      dz2     :    -0.000122  d :    -0.000312
      dxz     :    -0.000068
      dyz     :     0.000008
      dx2y2   :    -0.000061
      dxy     :    -0.000069
      f0      :    -0.000021  f :    -0.000097
      f+1     :    -0.000002
      f-1     :    -0.000039
      f+2     :    -0.000017
      f-2     :    -0.000023
      f+3     :     0.000003
      f-3     :     0.000002


                     *******************************
                     * LOEWDIN POPULATION ANALYSIS *
                     *******************************

-------------------------------------------
LOEWDIN ATOMIC CHARGES AND SPIN POPULATIONS
-------------------------------------------
   0 S :    0.111747    0.520405
   1 O :   -0.556026    0.239595
   2 O :   -0.555721    0.240000

----------------------------------------------------
LOEWDIN REDUCED ORBITAL CHARGES AND SPIN POPULATIONS
----------------------------------------------------
CHARGE
  0 S s       :     5.386369  s :     5.386369
      pz      :     3.157527  p :     9.471677
      px      :     2.960817
      py      :     3.353333
      dz2     :     0.173674  d :     0.877627
      dxz     :     0.247155
      dyz     :     0.102287
      dx2y2   :     0.184320
      dxy     :     0.170191
      f0      :     0.026401  f :     0.152581
      f+1     :     0.028006
      f-1     :     0.017811
      f+2     :     0.025964
      f-2     :     0.012090
      f+3     :     0.020360
      f-3     :     0.021949
  1 O s       :     3.694919  s :     3.694919
      pz      :     1.672014  p :     4.796747
      px      :     1.488875
      py      :     1.635858
      dz2     :     0.008717  d :     0.061006
      dxz     :     0.011262
      dyz     :     0.000109
      dx2y2   :     0.025497
      dxy     :     0.015421
      f0      :     0.000243  f :     0.003354
      f+1     :     0.000710
      f-1     :     0.000056
      f+2     :     0.000413
      f-2     :     0.000012
      f+3     :     0.001127
      f-3     :     0.000793
  2 O s       :     3.694970  s :     3.694970
      pz      :     1.548850  p :     4.796397
      px      :     1.645034
      py      :     1.602513
      dz2     :     0.020123  d :     0.060999
      dxz     :     0.012339
      dyz     :     0.019175
      dx2y2   :     0.004519
      dxy     :     0.004843
      f0      :     0.000654  f :     0.003355
      f+1     :     0.000674
      f-1     :     0.000842
      f+2     :     0.000431
      f-2     :     0.000588
      f+3     :     0.000096
      f-3     :     0.000069

SPIN
  0 S s       :     0.004057  s :     0.004057
      pz      :     0.092816  p :     0.455752
      px      :    -0.004597
      py      :     0.367533
      dz2     :     0.015904  d :     0.050167
      dxz     :     0.000830
      dyz     :     0.013274
      dx2y2   :     0.009551
      dxy     :     0.010608
      f0      :     0.000791  f :     0.010428
      f+1     :     0.000917
      f-1     :    -0.000292
      f+2     :     0.004275
      f-2     :     0.000742
      f+3     :     0.000171
      f-3     :     0.003825
  1 O s       :     0.002114  s :     0.002114
      pz      :     0.049191  p :     0.231253
      px      :     0.000860
      py      :     0.181202
      dz2     :    -0.000037  d :     0.006012
      dxz     :     0.001188
      dyz     :     0.000004
      dx2y2   :     0.000033
      dxy     :     0.004825
      f0      :     0.000027  f :     0.000216
      f+1     :    -0.000001
      f-1     :     0.000018
      f+2     :     0.000022
      f-2     :     0.000001
      f+3     :    -0.000049
      f-3     :     0.000198
  2 O s       :     0.002120  s :     0.002120
      pz      :     0.049305  p :     0.231658
      px      :     0.000821
      py      :     0.181532
      dz2     :     0.002784  d :     0.006007
      dxz     :     0.000025
      dyz     :     0.001893
      dx2y2   :     0.000933
      dxy     :     0.000371
      f0      :     0.000152  f :     0.000214
      f+1     :     0.000022
      f-1     :    -0.000041
      f+2     :     0.000059
      f-2     :     0.000001
      f+3     :     0.000018
      f-3     :     0.000003


                      *****************************
                      * MAYER POPULATION ANALYSIS *
                      *****************************

  NA   - Mulliken gross atomic population
  ZA   - Total nuclear charge
  QA   - Mulliken gross atomic charge
  VA   - Mayer's total valence
  BVA  - Mayer's bonded valence
  FA   - Mayer's free valence

  ATOM       NA         ZA         QA         VA         BVA        FA
  0 S     15.8356    16.0000     0.1644     3.4925     3.1842     0.3083
  1 O      8.5824     8.0000    -0.5824     1.7645     1.7051     0.0594
  2 O      8.5819     8.0000    -0.5819     1.7641     1.7045     0.0596

  Mayer bond orders larger than 0.100000
B(  0-S ,  1-O ) :   1.5924 B(  0-S ,  2-O ) :   1.5918 B(  1-O ,  2-O ) :   0.1127 


-------
TIMINGS
-------

Total SCF time: 0 days 0 hours 0 min 4 sec 

Total time                  ....       4.106 sec
Sum of individual times     ....       3.790 sec  ( 92.3%)

Fock matrix formation       ....       3.317 sec  ( 80.8%)
  Split-RI-J                ....       2.131 sec  ( 64.2% of F)
  XC integration            ....       0.537 sec  ( 16.2% of F)
    Basis function eval.    ....       0.043 sec  (  8.0% of XC)
    Density eval.           ....       0.052 sec  (  9.7% of XC)
    XC-Functional eval.     ....       0.013 sec  (  2.4% of XC)
    XC-Potential eval.      ....       0.066 sec  ( 12.3% of XC)
Diagonalization             ....       0.095 sec  (  2.3%)
Density matrix formation    ....       0.005 sec  (  0.1%)
Population analysis         ....       0.023 sec  (  0.6%)
Initial guess               ....       0.153 sec  (  3.7%)
Orbital Transformation      ....       0.000 sec  (  0.0%)
Orbital Orthonormalization  ....       0.000 sec  (  0.0%)
DIIS solution               ....       0.068 sec  (  1.7%)
Grid generation             ....       0.129 sec  (  3.1%)

-------------------------   --------------------
FINAL SINGLE POINT ENERGY      -548.433335182284
-------------------------   --------------------



           ************************************************************
           *        Program running with 5 parallel MPI-processes     *
           *              working on a common directory               *
           ************************************************************
------------------------------------------------------------------------------
                         ORCA SCF GRADIENT CALCULATION
------------------------------------------------------------------------------

Gradient of the Kohn-Sham DFT energy:
Kohn-Sham wavefunction type      ... UKS
Hartree-Fock exchange scaling    ...    0.000
Number of operators              ...    2
Number of atoms                  ...    3
Basis set dimensions             ...   99
Integral neglect threshold       ... 2.5e-11
Integral primitive cutoff        ... 2.5e-12

Nuclear repulsion gradient       ... done
One Electron Gradient            ... done
Pre-screening matrix             ... done
RI-J gradient                    ... done
Exchange-correlation gradient    ... done

------------------
CARTESIAN GRADIENT
------------------

   1   S   :   -0.017244497   -0.011270000   -0.021606894
   2   O   :    0.023468447    0.000779889    0.001474023
   3   O   :   -0.006223950    0.010490111    0.020132871

Difference to translation invariance:
           :   -0.0000000000    0.0000000000    0.0000000000

Norm of the cartesian gradient     ...    0.0447091146
RMS gradient                       ...    0.0149030382
MAX gradient                       ...    0.0234684473

-------
TIMINGS
-------

Total SCF gradient time            ...        0.660 sec

One electron gradient       ....       0.007 sec  (  1.1%)
Prescreening matrices       ....       0.052 sec  (  7.9%)
RI-J Coulomb gradient       ....       0.148 sec  ( 22.4%)
XC gradient                 ....       0.238 sec  ( 36.1%)
------------------------------------------------------------------------------
                         ORCA GEOMETRY RELAXATION STEP
------------------------------------------------------------------------------

Reading the OPT-File                    .... done
Getting information on internals        .... done
Copying old internal coords+grads       .... done
Making the new internal coordinates     .... (new redundants).... done
Validating the new internal coordinates .... (new redundants).... done
Calculating the B-matrix                .... done
Calculating the G,G- and P matrices     .... done
Transforming gradient to internals      .... done
Projecting the internal gradient        .... done
Number of atoms                         ....   3
Number of internal coordinates          ....   3
Current Energy                          ....  -548.433335182 Eh
Current gradient norm                   ....     0.044709115 Eh/bohr
Maximum allowed component of the step   ....  0.300
Current trust radius                    ....  0.300
Evaluating the initial hessian          ....  (Almloef) done
Projecting the Hessian                  .... done
Forming the augmented Hessian           .... done
Diagonalizing the augmented Hessian     .... done
Last element of RFO vector              ....  0.999009862
Lowest eigenvalues of augmented Hessian:
 -0.001500809  0.521359528  0.779512671
Length of the computed step             ....  0.044533364
The final length of the internal step   ....  0.044533364
Converting the step to cartesian space:
 Initial RMS(Int)=    0.0257113498
Transforming coordinates:
 Iter   0:  RMS(Cart)=    0.0111898367 RMS(Int)=    0.0256818992
 Iter   1:  RMS(Cart)=    0.0000888864 RMS(Int)=    0.0000996564
 Iter   2:  RMS(Cart)=    0.0000009880 RMS(Int)=    0.0000013235
 Iter   3:  RMS(Cart)=    0.0000000061 RMS(Int)=    0.0000000094
done
Storing new coordinates                 .... done

                                .--------------------.
          ----------------------|Geometry convergence|-------------------------
          Item                value                   Tolerance       Converged
          ---------------------------------------------------------------------
          RMS gradient        0.0195533499            0.0001000000      NO
          MAX gradient        0.0234121145            0.0003000000      NO
          RMS step            0.0257113498            0.0020000000      NO
          MAX step            0.0299765819            0.0040000000      NO
          ........................................................
          Max(Bonds)      0.0159      Max(Angles)    0.78
          Max(Dihed)        0.00      Max(Improp)    0.00
          ---------------------------------------------------------------------

The optimization has not yet converged - more geometry cycles are needed


    ---------------------------------------------------------------------------
                         Redundant Internal Coordinates
                            (Angstroem and degrees)

        Definition                    Value    dE/dq     Step     New-Value
    ----------------------------------------------------------------------------
     1. B(O   1,S   0)                1.5698  0.023412 -0.0159    1.5539   
     2. B(O   2,S   0)                1.5698  0.023409 -0.0159    1.5539   
     3. A(O   1,S   0,O   2)          113.00 -0.007135    0.78    113.78   
    ----------------------------------------------------------------------------

         *************************************************************
         *                GEOMETRY OPTIMIZATION CYCLE   2            *
         *************************************************************
---------------------------------
CARTESIAN COORDINATES (ANGSTROEM)
---------------------------------
  S     -1.389689    0.539036   -0.030735
  O      0.163124    0.512134   -0.082621
  O     -1.962392    1.203929    1.251676

----------------------------
CARTESIAN COORDINATES (A.U.)
----------------------------
  NO LB      ZA    FRAG     MASS         X           Y           Z
   0 S    16.0000    0    32.060   -2.626131    1.018630   -0.058081
   1 O     8.0000    0    15.999    0.308260    0.967793   -0.156131
   2 O     8.0000    0    15.999   -3.708383    2.275097    2.365325

--------------------------------
INTERNAL COORDINATES (ANGSTROEM)
--------------------------------
 S      0   0   0     0.000000000000     0.00000000     0.00000000
 O      1   0   0     1.553912400008     0.00000000     0.00000000
 O      1   2   0     1.553914817642   113.78204714     0.00000000

---------------------------
INTERNAL COORDINATES (A.U.)
---------------------------
 S      0   0   0     0.000000000000     0.00000000     0.00000000
 O      1   0   0     2.936468872120     0.00000000     0.00000000
 O      1   2   0     2.936473440786   113.78204714     0.00000000



           ************************************************************
           *        Program running with 5 parallel MPI-processes     *
           *              working on a common directory               *
           ************************************************************
 One Electron integrals                  ... done
 Pre-screening matrix                    ... done


           ************************************************************
           *        Program running with 5 parallel MPI-processes     *
           *              working on a common directory               *
           ************************************************************

Diagonalization of the overlap matrix:
Smallest eigenvalue                        ... 2.717e-03
Time for diagonalization                   ...    0.002 sec
Threshold for overlap eigenvalues          ... 1.000e-08
Number of eigenvalues below threshold      ... 0
Time for construction of square roots      ...    0.006 sec
Total time needed                          ...    0.008 sec

-------------------
DFT GRID GENERATION
-------------------

General Integration Accuracy     IntAcc      ...  4.340
Radial Grid Type                 RadialGrid  ... Gauss-Chebyshev
Angular Grid (max. acc.)         AngularGrid ... Lebedev-110
Angular grid pruning method      GridPruning ... 3 (G Style)
Weight generation scheme         WeightScheme... Becke
Basis function cutoff            BFCut       ...    1.0000e-11
Integration weight cutoff        WCut        ...    1.0000e-14
Grids for H and He will be reduced by one unit

# of grid points (after initial pruning)     ...   5238 (   0.0 sec)
# of grid points (after weights+screening)   ...   5193 (   0.0 sec)
nearest neighbour list constructed           ...    0.0 sec
Grid point re-assignment to atoms done       ...    0.0 sec
Grid point division into batches done        ...    0.0 sec
Reduced shell lists constructed in    0.0 sec

Total number of grid points                  ...     5193
Total number of batches                      ...       82
Average number of points per batch           ...       63
Average number of grid points per atom       ...     1731
Average number of shells per batch           ...    25.89 (73.97%)
Average number of basis functions per batch  ...    78.11 (78.90%)
Average number of large shells per batch     ...    22.78 (87.98%)
Average number of large basis fcns per batch ...    68.89 (88.19%)
Maximum spatial batch extension              ...  18.39, 17.75, 17.75 au
Average spatial batch extension              ...   1.34,  1.39,  1.32 au

Time for grid setup =    0.039 sec

--------------
SCF ITERATIONS
--------------
ITER       Energy         Delta-E        Max-DP      RMS-DP      [F,P]     Damp
               ***  Starting incremental Fock matrix formation  ***
  0   -548.4344322850   0.000000000000 0.00410947  0.00006715  0.0062416 0.7000
  1   -548.4345220532  -0.000089768190 0.00370437  0.00006136  0.0036107 0.7000
                               ***Turning on DIIS***
  2   -548.4345840669  -0.000062013628 0.00923479  0.00015625  0.0024145 0.0000
  3   -548.4347268262  -0.000142759361 0.00034209  0.00001738  0.0005259 0.0000
  4   -548.4347254068   0.000001419394 0.00016126  0.00000827  0.0010928 0.0000
  5   -548.4347281939  -0.000002787024 0.00012958  0.00000425  0.0001101 0.0000
  6   -548.4347282612  -0.000000067395 0.00003732  0.00000124  0.0000564 0.0000
  7   -548.4347282850  -0.000000023723 0.00001458  0.00000031  0.0000154 0.0000
  8   -548.4347282886  -0.000000003636 0.00000633  0.00000013  0.0000042 0.0000
                 **** Energy Check signals convergence ****

               *****************************************************
               *                     SUCCESS                       *
               *           SCF CONVERGED AFTER   9 CYCLES          *
               *****************************************************

Setting up the final grid:

General Integration Accuracy     IntAcc      ...  4.670
Radial Grid Type                 RadialGrid  ... Gauss-Chebyshev
Angular Grid (max. acc.)         AngularGrid ... Lebedev-302
Angular grid pruning method      GridPruning ... 3 (G Style)
Weight generation scheme         WeightScheme... Becke
Basis function cutoff            BFCut       ...    1.0000e-11
Integration weight cutoff        WCut        ...    1.0000e-14
Grids for H and He will be reduced by one unit

# of grid points (after initial pruning)     ...  19270 (   0.0 sec)
# of grid points (after weights+screening)   ...  19126 (   0.0 sec)
nearest neighbour list constructed           ...    0.0 sec
Grid point re-assignment to atoms done       ...    0.0 sec
Grid point division into batches done        ...    0.1 sec
Reduced shell lists constructed in    0.1 sec

Total number of grid points                  ...    19126
Total number of batches                      ...      300
Average number of points per batch           ...       63
Average number of grid points per atom       ...     6375
Average number of shells per batch           ...    22.79 (65.11%)
Average number of basis functions per batch  ...    69.15 (69.85%)
Average number of large shells per batch     ...    19.48 (85.47%)
Average number of large basis fcns per batch ...    59.28 (85.73%)
Maximum spatial batch extension              ...  16.41, 19.94, 16.57 au
Average spatial batch extension              ...   0.74,  0.85,  0.81 au

Final grid set up in    0.1 sec
Final integration                            ... done (   0.1 sec)
Change in XC energy                          ...     0.000226340
Integrated number of electrons               ...    32.999991975
Previous integrated no of electrons          ...    33.000223217
Total Energy       :         -548.43450194 Eh          -14923.66150 eV
  Last Energy change         ...    4.8117e-09  Tolerance :   1.0000e-08
  Last MAX-Density change    ...    1.7545e-06  Tolerance :   1.0000e-07
             **** THE GBW FILE WAS UPDATED (PH2N_PBE.gbw) ****
             **** DENSITY FILE WAS UPDATED (PH2N_PBE.scfp) ****
             **** ENERGY FILE WAS UPDATED (PH2N_PBE.en.tmp) ****
----------------------
UHF SPIN CONTAMINATION
----------------------

Warning: in a DFT calculation there is little theoretical justification to 
         calculate <S**2> as in Hartree-Fock theory. We will do it anyways
         but you should keep in mind that the values have only limited relevance

Expectation value of <S**2>     :     0.752474
Ideal value S*(S+1) for S=0.5   :     0.750000
Deviation                       :     0.002474

             **** THE GBW FILE WAS UPDATED (PH2N_PBE.gbw) ****
             **** DENSITY FILE WAS UPDATED (PH2N_PBE.scfp) ****
Total SCF time: 0 days 0 hours 0 min 2 sec 

-------------------------   --------------------
FINAL SINGLE POINT ENERGY      -548.434501943358
-------------------------   --------------------



           ************************************************************
           *        Program running with 5 parallel MPI-processes     *
           *              working on a common directory               *
           ************************************************************
------------------------------------------------------------------------------
                         ORCA SCF GRADIENT CALCULATION
------------------------------------------------------------------------------

Gradient of the Kohn-Sham DFT energy:
Kohn-Sham wavefunction type      ... UKS
Hartree-Fock exchange scaling    ...    0.000
Number of operators              ...    2
Number of atoms                  ...    3
Basis set dimensions             ...   99
Integral neglect threshold       ... 2.5e-11
Integral primitive cutoff        ... 2.5e-12

Nuclear repulsion gradient       ... done
One Electron Gradient            ... done
Pre-screening matrix             ... done
RI-J gradient                    ... done
Exchange-correlation gradient    ... done

------------------
CARTESIAN GRADIENT
------------------

   1   S   :   -0.009240900   -0.006051048   -0.011558424
   2   O   :    0.013102021    0.000243481    0.000441953
   3   O   :   -0.003861121    0.005807567    0.011116471

Difference to translation invariance:
           :   -0.0000000000    0.0000000000    0.0000000000

Norm of the cartesian gradient     ...    0.0244895107
RMS gradient                       ...    0.0081631702
MAX gradient                       ...    0.0131020209

-------
TIMINGS
-------

Total SCF gradient time            ...        0.560 sec

One electron gradient       ....       0.004 sec  (  0.7%)
Prescreening matrices       ....       0.060 sec  ( 10.7%)
RI-J Coulomb gradient       ....       0.161 sec  ( 28.8%)
XC gradient                 ....       0.111 sec  ( 19.8%)
------------------------------------------------------------------------------
                         ORCA GEOMETRY RELAXATION STEP
------------------------------------------------------------------------------

Reading the OPT-File                    .... done
Getting information on internals        .... done
Copying old internal coords+grads       .... done
Making the new internal coordinates     .... (new redundants).... done
Validating the new internal coordinates .... (new redundants).... done
Calculating the B-matrix                .... done
Calculating the G,G- and P matrices     .... done
Transforming gradient to internals      .... done
Projecting the internal gradient        .... done
Number of atoms                         ....   3
Number of internal coordinates          ....   3
Current Energy                          ....  -548.434501943 Eh
Current gradient norm                   ....     0.024489511 Eh/bohr
Maximum allowed component of the step   ....  0.300
Current trust radius                    ....  0.300
Updating the Hessian (BFGS)             .... done
Forming the augmented Hessian           .... done
Diagonalizing the augmented Hessian     .... done
Last element of RFO vector              ....  0.998535958
Lowest eigenvalues of augmented Hessian:
 -0.001011858  0.341206646  0.539138304
Length of the computed step             ....  0.054171272
The final length of the internal step   ....  0.054171272
Converting the step to cartesian space:
 Initial RMS(Int)=    0.0312757985
Transforming coordinates:
 Iter   0:  RMS(Cart)=    0.0139244958 RMS(Int)=    0.0312505038
 Iter   1:  RMS(Cart)=    0.0000965494 RMS(Int)=    0.0001073687
 Iter   2:  RMS(Cart)=    0.0000013459 RMS(Int)=    0.0000016455
 Iter   3:  RMS(Cart)=    0.0000000134 RMS(Int)=    0.0000000170
done
Storing new coordinates                 .... done

                                .--------------------.
          ----------------------|Geometry convergence|-------------------------
          Item                value                   Tolerance       Converged
          ---------------------------------------------------------------------
          Energy change      -0.0011667611            0.0000050000      NO
          RMS gradient        0.0108158833            0.0001000000      NO
          MAX gradient        0.0130806793            0.0003000000      NO
          RMS step            0.0312757985            0.0020000000      NO
          MAX step            0.0372483529            0.0040000000      NO
          ........................................................
          Max(Bonds)      0.0197      Max(Angles)    0.73
          Max(Dihed)        0.00      Max(Improp)    0.00
          ---------------------------------------------------------------------

The optimization has not yet converged - more geometry cycles are needed


    ---------------------------------------------------------------------------
                         Redundant Internal Coordinates
                            (Angstroem and degrees)

        Definition                    Value    dE/dq     Step     New-Value
    ----------------------------------------------------------------------------
     1. B(O   1,S   0)                1.5539  0.013081 -0.0197    1.5342   
     2. B(O   2,S   0)                1.5539  0.013075 -0.0197    1.5342   
     3. A(O   1,S   0,O   2)          113.78 -0.002980    0.73    114.51   
    ----------------------------------------------------------------------------

         *************************************************************
         *                GEOMETRY OPTIMIZATION CYCLE   3            *
         *************************************************************
---------------------------------
CARTESIAN COORDINATES (ANGSTROEM)
---------------------------------
  S     -1.382400    0.543778   -0.021589
  O      0.150319    0.512745   -0.081444
  O     -1.956875    1.198577    1.241353

----------------------------
CARTESIAN COORDINATES (A.U.)
----------------------------
  NO LB      ZA    FRAG     MASS         X           Y           Z
   0 S    16.0000    0    32.060   -2.612358    1.027591   -0.040797
   1 O     8.0000    0    15.999    0.284062    0.968947   -0.153907
   2 O     8.0000    0    15.999   -3.697957    2.264983    2.345818

--------------------------------
INTERNAL COORDINATES (ANGSTROEM)
--------------------------------
 S      0   0   0     0.000000000000     0.00000000     0.00000000
 O      1   0   0     1.534201420517     0.00000000     0.00000000
 O      1   2   0     1.534211976045   114.50858052     0.00000000

---------------------------
INTERNAL COORDINATES (A.U.)
---------------------------
 S      0   0   0     0.000000000000     0.00000000     0.00000000
 O      1   0   0     2.899220519050     0.00000000     0.00000000
 O      1   2   0     2.899240466107   114.50858052     0.00000000



           ************************************************************
           *        Program running with 5 parallel MPI-processes     *
           *              working on a common directory               *
           ************************************************************
 One Electron integrals                  ... done
 Pre-screening matrix                    ... done


           ************************************************************
           *        Program running with 5 parallel MPI-processes     *
           *              working on a common directory               *
           ************************************************************

Diagonalization of the overlap matrix:
Smallest eigenvalue                        ... 2.561e-03
Time for diagonalization                   ...    0.001 sec
Threshold for overlap eigenvalues          ... 1.000e-08
Number of eigenvalues below threshold      ... 0
Time for construction of square roots      ...    0.006 sec
Total time needed                          ...    0.007 sec

-------------------
DFT GRID GENERATION
-------------------

General Integration Accuracy     IntAcc      ...  4.340
Radial Grid Type                 RadialGrid  ... Gauss-Chebyshev
Angular Grid (max. acc.)         AngularGrid ... Lebedev-110
Angular grid pruning method      GridPruning ... 3 (G Style)
Weight generation scheme         WeightScheme... Becke
Basis function cutoff            BFCut       ...    1.0000e-11
Integration weight cutoff        WCut        ...    1.0000e-14
Grids for H and He will be reduced by one unit

# of grid points (after initial pruning)     ...   5238 (   0.0 sec)
# of grid points (after weights+screening)   ...   5193 (   0.0 sec)
nearest neighbour list constructed           ...    0.0 sec
Grid point re-assignment to atoms done       ...    0.0 sec
Grid point division into batches done        ...    0.0 sec
Reduced shell lists constructed in    0.0 sec

Total number of grid points                  ...     5193
Total number of batches                      ...       82
Average number of points per batch           ...       63
Average number of grid points per atom       ...     1731
Average number of shells per batch           ...    26.00 (74.29%)
Average number of basis functions per batch  ...    78.56 (79.35%)
Average number of large shells per batch     ...    23.00 (88.46%)
Average number of large basis fcns per batch ...    69.33 (88.26%)
Maximum spatial batch extension              ...  18.48, 17.75, 17.75 au
Average spatial batch extension              ...   1.35,  1.40,  1.32 au

Time for grid setup =    0.042 sec

--------------
SCF ITERATIONS
--------------
ITER       Energy         Delta-E        Max-DP      RMS-DP      [F,P]     Damp
               ***  Starting incremental Fock matrix formation  ***
  0   -548.4348031104   0.000000000000 0.00542131  0.00008559  0.0078117 0.7000
  1   -548.4349364840  -0.000133373661 0.00489366  0.00007826  0.0045476 0.7000
                               ***Turning on DIIS***
  2   -548.4350280414  -0.000091557334 0.01218671  0.00019935  0.0030015 0.0000
  3   -548.4352384349  -0.000210393541 0.00052081  0.00002203  0.0006470 0.0000
  4   -548.4352365908   0.000001844113 0.00018156  0.00000991  0.0013241 0.0000
  5   -548.4352405363  -0.000003945541 0.00016652  0.00000519  0.0001369 0.0000
  6   -548.4352406315  -0.000000095165 0.00005300  0.00000159  0.0000679 0.0000
  7   -548.4352406643  -0.000000032848 0.00002000  0.00000040  0.0000192 0.0000
  8   -548.4352406656  -0.000000001289 0.00000835  0.00000016  0.0000050 0.0000
                 **** Energy Check signals convergence ****

               *****************************************************
               *                     SUCCESS                       *
               *           SCF CONVERGED AFTER   9 CYCLES          *
               *****************************************************

Setting up the final grid:

General Integration Accuracy     IntAcc      ...  4.670
Radial Grid Type                 RadialGrid  ... Gauss-Chebyshev
Angular Grid (max. acc.)         AngularGrid ... Lebedev-302
Angular grid pruning method      GridPruning ... 3 (G Style)
Weight generation scheme         WeightScheme... Becke
Basis function cutoff            BFCut       ...    1.0000e-11
Integration weight cutoff        WCut        ...    1.0000e-14
Grids for H and He will be reduced by one unit

# of grid points (after initial pruning)     ...  19270 (   0.0 sec)
# of grid points (after weights+screening)   ...  19123 (   0.0 sec)
nearest neighbour list constructed           ...    0.0 sec
Grid point re-assignment to atoms done       ...    0.0 sec
Grid point division into batches done        ...    0.1 sec
Reduced shell lists constructed in    0.1 sec

Total number of grid points                  ...    19123
Total number of batches                      ...      300
Average number of points per batch           ...       63
Average number of grid points per atom       ...     6374
Average number of shells per batch           ...    22.77 (65.06%)
Average number of basis functions per batch  ...    69.10 (69.80%)
Average number of large shells per batch     ...    19.66 (86.32%)
Average number of large basis fcns per batch ...    59.46 (86.05%)
Maximum spatial batch extension              ...  16.41, 19.94, 16.53 au
Average spatial batch extension              ...   0.72,  0.85,  0.81 au

Final grid set up in    0.1 sec
Final integration                            ... done (   0.1 sec)
Change in XC energy                          ...     0.000277583
Integrated number of electrons               ...    32.999993137
Previous integrated no of electrons          ...    33.000253883
Total Energy       :         -548.43496308 Eh          -14923.67405 eV
  Last Energy change         ...    5.3778e-09  Tolerance :   1.0000e-08
  Last MAX-Density change    ...    2.1347e-06  Tolerance :   1.0000e-07
             **** THE GBW FILE WAS UPDATED (PH2N_PBE.gbw) ****
             **** DENSITY FILE WAS UPDATED (PH2N_PBE.scfp) ****
             **** ENERGY FILE WAS UPDATED (PH2N_PBE.en.tmp) ****
----------------------
UHF SPIN CONTAMINATION
----------------------

Warning: in a DFT calculation there is little theoretical justification to 
         calculate <S**2> as in Hartree-Fock theory. We will do it anyways
         but you should keep in mind that the values have only limited relevance

Expectation value of <S**2>     :     0.752500
Ideal value S*(S+1) for S=0.5   :     0.750000
Deviation                       :     0.002500

             **** THE GBW FILE WAS UPDATED (PH2N_PBE.gbw) ****
             **** DENSITY FILE WAS UPDATED (PH2N_PBE.scfp) ****
Total SCF time: 0 days 0 hours 0 min 2 sec 

-------------------------   --------------------
FINAL SINGLE POINT ENERGY      -548.434963077665
-------------------------   --------------------



           ************************************************************
           *        Program running with 5 parallel MPI-processes     *
           *              working on a common directory               *
           ************************************************************
------------------------------------------------------------------------------
                         ORCA SCF GRADIENT CALCULATION
------------------------------------------------------------------------------

Gradient of the Kohn-Sham DFT energy:
Kohn-Sham wavefunction type      ... UKS
Hartree-Fock exchange scaling    ...    0.000
Number of operators              ...    2
Number of atoms                  ...    3
Basis set dimensions             ...   99
Integral neglect threshold       ... 2.5e-11
Integral primitive cutoff        ... 2.5e-12

Nuclear repulsion gradient       ... done
One Electron Gradient            ... done
Pre-screening matrix             ... done
RI-J gradient                    ... done
Exchange-correlation gradient    ... done

------------------
CARTESIAN GRADIENT
------------------

   1   S   :    0.001131437    0.000704969    0.001470398
   2   O   :   -0.001293977   -0.000137154   -0.000291779
   3   O   :    0.000162539   -0.000567815   -0.001178619

Difference to translation invariance:
           :    0.0000000000    0.0000000000    0.0000000000

Norm of the cartesian gradient     ...    0.0027304760
RMS gradient                       ...    0.0009101587
MAX gradient                       ...    0.0014703982

-------
TIMINGS
-------

Total SCF gradient time            ...        0.588 sec

One electron gradient       ....       0.002 sec  (  0.3%)
Prescreening matrices       ....       0.051 sec  (  8.7%)
RI-J Coulomb gradient       ....       0.147 sec  ( 25.0%)
XC gradient                 ....       0.154 sec  ( 26.2%)
------------------------------------------------------------------------------
                         ORCA GEOMETRY RELAXATION STEP
------------------------------------------------------------------------------

Reading the OPT-File                    .... done
Getting information on internals        .... done
Copying old internal coords+grads       .... done
Making the new internal coordinates     .... (new redundants).... done
Validating the new internal coordinates .... (new redundants).... done
Calculating the B-matrix                .... done
Calculating the G,G- and P matrices     .... done
Transforming gradient to internals      .... done
Projecting the internal gradient        .... done
Number of atoms                         ....   3
Number of internal coordinates          ....   3
Current Energy                          ....  -548.434963078 Eh
Current gradient norm                   ....     0.002730476 Eh/bohr
Maximum allowed component of the step   ....  0.300
Current trust radius                    ....  0.300
Updating the Hessian (BFGS)             .... done
Forming the augmented Hessian           .... done
Diagonalizing the augmented Hessian     .... done
Last element of RFO vector              ....  0.999985243
Lowest eigenvalues of augmented Hessian:
 -0.000011300  0.380132914  0.535707119
Length of the computed step             ....  0.005432756
The final length of the internal step   ....  0.005432756
Converting the step to cartesian space:
 Initial RMS(Int)=    0.0031366034
Transforming coordinates:
 Iter   0:  RMS(Cart)=    0.0013946102 RMS(Int)=    0.0031374391
 Iter   1:  RMS(Cart)=    0.0000020440 RMS(Int)=    0.0000024464
 Iter   2:  RMS(Cart)=    0.0000000026 RMS(Int)=    0.0000000043
done
Storing new coordinates                 .... done

                                .--------------------.
          ----------------------|Geometry convergence|-------------------------
          Item                value                   Tolerance       Converged
          ---------------------------------------------------------------------
          Energy change      -0.0004611343            0.0000050000      NO
          RMS gradient        0.0012025918            0.0001000000      NO
          MAX gradient        0.0012809199            0.0003000000      NO
          RMS step            0.0031366034            0.0020000000      NO
          MAX step            0.0034308133            0.0040000000      YES
          ........................................................
          Max(Bonds)      0.0018      Max(Angles)    0.14
          Max(Dihed)        0.00      Max(Improp)    0.00
          ---------------------------------------------------------------------

The optimization has not yet converged - more geometry cycles are needed


    ---------------------------------------------------------------------------
                         Redundant Internal Coordinates
                            (Angstroem and degrees)

        Definition                    Value    dE/dq     Step     New-Value
    ----------------------------------------------------------------------------
     1. B(O   1,S   0)                1.5342 -0.001271  0.0018    1.5360   
     2. B(O   2,S   0)                1.5342 -0.001281  0.0018    1.5360   
     3. A(O   1,S   0,O   2)          114.51  0.001040   -0.14    114.37   
    ----------------------------------------------------------------------------

         *************************************************************
         *                GEOMETRY OPTIMIZATION CYCLE   4            *
         *************************************************************
---------------------------------
CARTESIAN COORDINATES (ANGSTROEM)
---------------------------------
  S     -1.383387    0.543134   -0.022831
  O      0.151222    0.512933   -0.081081
  O     -1.956791    1.199033    1.242232

----------------------------
[...]
  0 S s       :     0.001907  s :     0.001907
      pz      :     0.103764  p :     0.509255
      px      :    -0.006274
      py      :     0.411765
      dz2     :     0.008109  d :     0.027480
      dxz     :     0.000210
      dyz     :     0.007482
      dx2y2   :     0.006305
      dxy     :     0.005375
      f0      :    -0.000060  f :     0.000752
      f+1     :     0.000224
      f-1     :    -0.000361
      f+2     :     0.000664
      f-2     :     0.000092
      f+3     :    -0.000298
      f-3     :     0.000491
  1 O s       :     0.003478  s :     0.003478
      pz      :     0.047778  p :     0.226979
      px      :     0.002405
      py      :     0.176796
      dz2     :    -0.000026  d :    -0.000292
      dxz     :    -0.000118
      dyz     :     0.000007
      dx2y2   :     0.000117
      dxy     :    -0.000271
      f0      :     0.000006  f :    -0.000096
      f+1     :    -0.000001
      f-1     :     0.000005
      f+2     :    -0.000026
      f-2     :     0.000001
      f+3     :    -0.000039
      f-3     :    -0.000043
  2 O s       :     0.003490  s :     0.003490
      pz      :     0.049212  p :     0.227445
      px      :     0.000737
      py      :     0.177496
      dz2     :    -0.000105  d :    -0.000300
      dxz     :    -0.000080
      dyz     :     0.000025
      dx2y2   :    -0.000057
      dxy     :    -0.000084
      f0      :    -0.000019  f :    -0.000097
      f+1     :    -0.000003
      f-1     :    -0.000038
      f+2     :    -0.000018
      f-2     :    -0.000023
      f+3     :     0.000003
      f-3     :     0.000002


                     *******************************
                     * LOEWDIN POPULATION ANALYSIS *
                     *******************************

-------------------------------------------
LOEWDIN ATOMIC CHARGES AND SPIN POPULATIONS
-------------------------------------------
   0 S :    0.082258    0.535145
   1 O :   -0.541240    0.232217
   2 O :   -0.541018    0.232638

----------------------------------------------------
LOEWDIN REDUCED ORBITAL CHARGES AND SPIN POPULATIONS
----------------------------------------------------
CHARGE
  0 S s       :     5.350946  s :     5.350946
      pz      :     3.154194  p :     9.452230
      px      :     2.960404
      py      :     3.337632
      dz2     :     0.185934  d :     0.947470
      dxz     :     0.268584
      dyz     :     0.109413
      dx2y2   :     0.198078
      dxy     :     0.185460
      f0      :     0.029226  f :     0.167096
      f+1     :     0.029966
      f-1     :     0.018825
      f+2     :     0.029309
      f-2     :     0.013316
      f+3     :     0.021609
      f-3     :     0.024845
  1 O s       :     3.674163  s :     3.674163
      pz      :     1.657836  p :     4.798221
      px      :     1.512976
      py      :     1.627409
      dz2     :     0.009045  d :     0.065191
      dxz     :     0.012523
      dyz     :     0.000136
      dx2y2   :     0.026283
      dxy     :     0.017205
      f0      :     0.000277  f :     0.003665
      f+1     :     0.000751
      f-1     :     0.000063
      f+2     :     0.000471
      f-2     :     0.000018
      f+3     :     0.001181
      f-3     :     0.000905
  2 O s       :     3.674242  s :     3.674242
      pz      :     1.564754  p :     4.797930
      px      :     1.630977
      py      :     1.602199
      dz2     :     0.021342  d :     0.065180
      dxz     :     0.013320
      dyz     :     0.020019
      dx2y2   :     0.005109
      dxy     :     0.005389
      f0      :     0.000726  f :     0.003667
      f+1     :     0.000741
      f-1     :     0.000863
      f+2     :     0.000491
      f-2     :     0.000652
      f+3     :     0.000111
      f-3     :     0.000082

SPIN
  0 S s       :     0.004187  s :     0.004187
      pz      :     0.094150  p :     0.462852
      px      :    -0.004725
      py      :     0.373427
      dz2     :     0.017451  d :     0.055590
      dxz     :     0.001057
      dyz     :     0.014566
      dx2y2   :     0.010666
      dxy     :     0.011850
      f0      :     0.000908  f :     0.012516
      f+1     :     0.001166
      f-1     :    -0.000277
      f+2     :     0.004947
      f-2     :     0.000937
      f+3     :     0.000306
      f-3     :     0.004530
  1 O s       :     0.002142  s :     0.002142
      pz      :     0.047272  p :     0.222650
      px      :     0.000807
      py      :     0.174571
      dz2     :    -0.000030  d :     0.007150
      dxz     :     0.001417
      dyz     :     0.000003
      dx2y2   :     0.000040
      dxy     :     0.005720
      f0      :     0.000032  f :     0.000274
      f+1     :    -0.000000
      f-1     :     0.000021
      f+2     :     0.000029
      f-2     :     0.000001
      f+3     :    -0.000049
      f-3     :     0.000242
  2 O s       :     0.002148  s :     0.002148
      pz      :     0.047478  p :     0.223072
      px      :     0.000676
      py      :     0.174917
      dz2     :     0.003293  d :     0.007145
      dxz     :     0.000053
      dyz     :     0.002226
      dx2y2   :     0.001106
      dxy     :     0.000468
      f0      :     0.000182  f :     0.000273
      f+1     :     0.000028
      f-1     :    -0.000040
      f+2     :     0.000072
      f-2     :     0.000005
      f+3     :     0.000022
      f-3     :     0.000003


                      *****************************
                      * MAYER POPULATION ANALYSIS *
                      *****************************

  NA   - Mulliken gross atomic population
  ZA   - Total nuclear charge
  QA   - Mulliken gross atomic charge
  VA   - Mayer's total valence
  BVA  - Mayer's bonded valence
  FA   - Mayer's free valence

  ATOM       NA         ZA         QA         VA         BVA        FA
  0 S     15.8469    16.0000     0.1531     3.5428     3.2138     0.3289
  1 O      8.5766     8.0000    -0.5766     1.7529     1.6976     0.0553
  2 O      8.5765     8.0000    -0.5765     1.7523     1.6969     0.0554

  Mayer bond orders larger than 0.100000
B(  0-S ,  1-O ) :   1.6073 B(  0-S ,  2-O ) :   1.6065 

-------
TIMINGS
-------

Total SCF time: 0 days 0 hours 0 min 2 sec 

Total time                  ....       2.255 sec
Sum of individual times     ....       2.025 sec  ( 89.8%)

Fock matrix formation       ....       1.803 sec  ( 80.0%)
  Split-RI-J                ....       1.145 sec  ( 63.5% of F)
  XC integration            ....       0.314 sec  ( 17.4% of F)
    Basis function eval.    ....       0.034 sec  ( 10.8% of XC)
    Density eval.           ....       0.026 sec  (  8.3% of XC)
    XC-Functional eval.     ....       0.004 sec  (  1.3% of XC)
    XC-Potential eval.      ....       0.041 sec  ( 13.1% of XC)
Diagonalization             ....       0.038 sec  (  1.7%)
Density matrix formation    ....       0.001 sec  (  0.0%)
Population analysis         ....       0.024 sec  (  1.1%)
Initial guess               ....       0.006 sec  (  0.3%)
Orbital Transformation      ....       0.000 sec  (  0.0%)
Orbital Orthonormalization  ....       0.002 sec  (  0.1%)
DIIS solution               ....       0.024 sec  (  1.1%)
Grid generation             ....       0.129 sec  (  5.7%)

-------------------------   --------------------
FINAL SINGLE POINT ENERGY      -548.434968930415
-------------------------   --------------------

                                *** OPTIMIZATION RUN DONE ***

                            ***************************************
                            *     ORCA property calculations      *
                            ***************************************

                                    ---------------------
                                    Active property flags
                                    ---------------------
   (+) Dipole Moment


------------------------------------------------------------------------------
                       ORCA ELECTRIC PROPERTIES CALCULATION
------------------------------------------------------------------------------

Dipole Moment Calculation                       ... on
Quadrupole Moment Calculation                   ... off
Polarizability Calculation                      ... off
GBWName                                         ... PH2N_PBE.gbw
Electron density file                           ... PH2N_PBE.scfp
The origin for moment calculation is the CENTER OF MASS  = (-2.160605,  1.321657  0.526381)

-------------
DIPOLE MOMENT
-------------
                                X             Y             Z
Electronic contribution:     -0.35230      -0.22885      -0.44162
Nuclear contribution   :      0.01407       0.00916       0.01766
                        -----------------------------------------
Total Dipole Moment    :     -0.33823      -0.21969      -0.42395
                        -----------------------------------------
Magnitude (a.u.)       :      0.58515
Magnitude (Debye)      :      1.48733



--------------------
Rotational spectrum 
--------------------
 
Rotational constants in cm-1:     1.518138     0.316297     0.261760 
Rotational constants in MHz : 45512.630843  9482.330607  7847.370033 

 Dipole components along the rotational axes: 
x,y,z [a.u.] :    -0.000476    -0.585149     0.000101 
x,y,z [Debye]:    -0.001209    -1.487330     0.000257 

 

----------------------------------------------------------------------------
                           ORCA NUMERICAL FREQUENCIES
                              (5-process run)
----------------------------------------------------------------------------

Number of atoms                ... 3
Central differences            ... used
Number of displacements        ... 18
Numerical increment            ... 5.000e-03 bohr
IR-spectrum generation         ... on
Raman-spectrum generation      ... off
Surface Crossing Hessian       ... off

The output will be reduced. Please look at the following files:
SCF program output             ... >PH2N_PBE.lastscf
Integral program output        ... >PH2N_PBE.lastint
Gradient program output        ... >PH2N_PBE.lastgrad
Dipole moment program output   ... >PH2N_PBE.lastmom
AutoCI program output          ... >PH2N_PBE.lastautoci


         <<< Energy and Gradient at the input geometry >>>

        <<< Energy and Gradient at displaced geometries >>>
             <<<Displacing   2/coordinate 1 (+)>>>
             <<<Displacing   1/coordinate 1 (+)>>>
             <<<Displacing   1/coordinate 3 (+)>>>
             <<<Displacing   1/coordinate 2 (+)>>>
             <<<Displacing   2/coordinate 2 (+)>>>
             <<<Displacing   2/coordinate 2 (-)>>>
             <<<Displacing   1/coordinate 3 (-)>>>
             <<<Displacing   2/coordinate 1 (-)>>>
             <<<Displacing   1/coordinate 2 (-)>>>
             <<<Displacing   1/coordinate 1 (-)>>>
             <<<Displacing   2/coordinate 3 (+)>>>
             <<<Displacing   3/coordinate 1 (+)>>>
             <<<Displacing   3/coordinate 2 (+)>>>
             <<<Displacing   3/coordinate 3 (+)>>>
             <<<Displacing   2/coordinate 3 (-)>>>
             <<<Displacing   3/coordinate 1 (-)>>>
             <<<Displacing   3/coordinate 2 (-)>>>
             <<<Displacing   3/coordinate 3 (-)>>>

-----------------------
VIBRATIONAL FREQUENCIES
-----------------------

Scaling factor for frequencies =  1.000000000 (already applied!)

   0:         0.00 cm**-1
   1:         0.00 cm**-1
   2:         0.00 cm**-1
   3:         0.00 cm**-1
   4:         0.00 cm**-1
   5:         0.00 cm**-1
   6:       429.45 cm**-1
   7:       944.29 cm**-1
   8:      1032.88 cm**-1


------------
NORMAL MODES
------------

These modes are the cartesian displacements weighted by the diagonal matrix
M(i,i)=1/sqrt(m[i]) where m[i] is the mass of the displaced atom
Thus, these vectors are normalized but *not* orthogonal

                  0          1          2          3          4          5    
      0       0.000000   0.000000   0.000000   0.000000   0.000000   0.000000
      1       0.000000   0.000000   0.000000   0.000000   0.000000   0.000000
      2       0.000000   0.000000   0.000000   0.000000   0.000000   0.000000
      3       0.000000   0.000000   0.000000   0.000000   0.000000   0.000000
      4       0.000000   0.000000   0.000000   0.000000   0.000000   0.000000
      5       0.000000   0.000000   0.000000   0.000000   0.000000   0.000000
      6       0.000000   0.000000   0.000000   0.000000   0.000000   0.000000
      7       0.000000   0.000000   0.000000   0.000000   0.000000   0.000000
      8       0.000000   0.000000   0.000000   0.000000   0.000000   0.000000
                   6          7          8    
      0       0.206366   0.230598  -0.415606
      1       0.134724   0.148336   0.136109
      2       0.259849   0.286102   0.262520
      3       0.245901  -0.651269   0.604309
      4      -0.282138  -0.012662  -0.011646
      5      -0.544173  -0.024422  -0.022463
      6      -0.659431   0.189180   0.228514
      7       0.012168  -0.284584  -0.261100
      8       0.023468  -0.548891  -0.503595


-----------
IR SPECTRUM  
-----------

 Mode    freq (cm**-1)   T**2         TX         TY         TZ
-------------------------------------------------------------------
   6:       429.45    9.508926  (  1.700535   1.234346   2.256878)
   7:       944.29   46.055487  (  4.036106   2.558654   4.818571)
   8:      1032.88  246.299637  (-12.788196   4.228282   8.055017)

The first frequency considered to be a vibration is 6
The total number of vibrations considered is 3


--------------------------
THERMOCHEMISTRY AT 298.15K
--------------------------

Temperature         ... 298.15 K
Pressure            ... 1.00 atm
Total Mass          ... 64.06 AMU

Throughout the following assumptions are being made:
  (1) The electronic state is orbitally nondegenerate
      but the spin degeneracy is treated
  (2) There are no thermally accessible electronically excited states
  (3) Hindered rotations indicated by low frequency modes are not
      treated as such but are treated as vibrations and this may
      cause some error
  (4) All equations used are the standard statistical mechanics
      equations for an ideal gas
  (5) All vibrations are strictly harmonic

freq.     429.45  E(vib)   ...       0.18 
freq.     944.29  E(vib)   ...       0.03 
freq.    1032.88  E(vib)   ...       0.02 

------------
INNER ENERGY
------------

The inner energy is: U= E(el) + E(ZPE) + E(vib) + E(rot) + E(trans)
    E(el)   - is the total energy from the electronic structure calculation
              = E(kin-el) + E(nuc-el) + E(el-el) + E(nuc-nuc)
    E(ZPE)  - the the zero temperature vibrational energy from the frequency calculation
    E(vib)  - the the finite temperature correction to E(ZPE) due to population
              of excited vibrational states
    E(rot)  - is the rotational thermal energy
    E(trans)- is the translational thermal energy

Summary of contributions to the inner energy U:
Electronic energy                ...   -548.43496828 Eh
Zero point energy                ...      0.00548268 Eh       3.44 kcal/mol
Thermal vibrational correction   ...      0.00035988 Eh       0.23 kcal/mol
Thermal rotational correction    ...      0.00141627 Eh       0.89 kcal/mol
Thermal translational correction ...      0.00141627 Eh       0.89 kcal/mol
-----------------------------------------------------------------------
Total thermal energy                   -548.42629316 Eh


Summary of corrections to the electronic energy:
(perhaps to be used in another calculation)
Total thermal correction                  0.00319243 Eh       2.00 kcal/mol
Non-thermal (ZPE) correction              0.00548268 Eh       3.44 kcal/mol
-----------------------------------------------------------------------
Total correction                          0.00867511 Eh       5.44 kcal/mol


--------
ENTHALPY
--------

The enthalpy is H = U + kB*T
                kB is Boltzmann's constant
Total free energy                 ...   -548.42629316 Eh 
Thermal Enthalpy correction       ...      0.00094421 Eh       0.59 kcal/mol
-----------------------------------------------------------------------
Total Enthalpy                    ...   -548.42534896 Eh


Note: Rotational entropy computed according to Herzberg 
Infrared and Raman Spectra, Chapter V,1, Van Nostrand Reinhold, 1945 
Point Group:  Cs, Symmetry Number:   1  
Rotational constants in cm-1:     1.518138     0.316297     0.261760 

Vibrational entropy computed according to the QRRHO of S. Grimme
Chem.Eur.J. 2012 18 9955


-------
ENTROPY
-------

The entropy contributions are T*S = T*(S(el)+S(vib)+S(rot)+S(trans))
     S(el)   - electronic entropy
     S(vib)  - vibrational entropy
     S(rot)  - rotational entropy
     S(trans)- translational entropy
The entropies will be listed as mutliplied by the temperature to get
units of energy

Electronic entropy                ...      0.00065446 Eh      0.41 kcal/mol
Vibrational entropy               ...      0.00050417 Eh      0.32 kcal/mol
Rotational entropy                ...      0.01048989 Eh      6.58 kcal/mol
Translational entropy             ...      0.01824046 Eh     11.45 kcal/mol
-----------------------------------------------------------------------
Final entropy term                ...      0.02988897 Eh     18.76 kcal/mol

In case the symmetry of your molecule has not been determined correctly
or in case you have a reason to use a different symmetry number we print 
out the resulting rotational entropy values for sn=1,12 :
 --------------------------------------------------------
|  sn= 1 | S(rot)=       0.01048989 Eh      6.58 kcal/mol|
|  sn= 2 | S(rot)=       0.00983543 Eh      6.17 kcal/mol|
|  sn= 3 | S(rot)=       0.00945260 Eh      5.93 kcal/mol|
|  sn= 4 | S(rot)=       0.00918097 Eh      5.76 kcal/mol|
|  sn= 5 | S(rot)=       0.00897029 Eh      5.63 kcal/mol|
|  sn= 6 | S(rot)=       0.00879814 Eh      5.52 kcal/mol|
|  sn= 7 | S(rot)=       0.00865260 Eh      5.43 kcal/mol|
|  sn= 8 | S(rot)=       0.00852652 Eh      5.35 kcal/mol|
|  sn= 9 | S(rot)=       0.00841531 Eh      5.28 kcal/mol|
|  sn=10 | S(rot)=       0.00831583 Eh      5.22 kcal/mol|
|  sn=11 | S(rot)=       0.00822584 Eh      5.16 kcal/mol|
|  sn=12 | S(rot)=       0.00814369 Eh      5.11 kcal/mol|
 --------------------------------------------------------


-------------------
GIBBS FREE ENERGY
-------------------

The Gibbs free energy is G = H - T*S

Total enthalpy                    ...   -548.42534896 Eh 
Total entropy correction          ...     -0.02988897 Eh    -18.76 kcal/mol
-----------------------------------------------------------------------
Final Gibbs free energy         ...   -548.45523793 Eh

For completeness - the Gibbs free energy minus the electronic energy
G-E(el)                           ...     -0.02026965 Eh    -12.72 kcal/mol


Total Time for Numerical Frequencies  :        29.385 sec

Timings for individual modules:

Sum of individual times         ...       28.309 sec (=   0.472 min)
GTO integral calculation        ...        7.076 sec (=   0.118 min)  25.0 %
SCF iterations                  ...       16.484 sec (=   0.275 min)  58.2 %
SCF Gradient evaluation         ...        3.397 sec (=   0.057 min)  12.0 %
Geometry relaxation             ...        1.352 sec (=   0.023 min)   4.8 %
                             ****ORCA TERMINATED NORMALLY****
TOTAL RUN TIME: 0 days 0 hours 0 minutes 55 seconds 592 msec
