
                                 *****************
                                 * O   R   C   A *
                                 *****************

           --- An Ab Initio, DFT and Semiempirical electronic structure package ---

                  #######################################################
                  #                        -***-                        #
                  #          Department of theory and spectroscopy      #
                  #               Directorship: Frank Neese             #
                  #        Max Planck Institute fuer Kohlenforschung    #
                  #                Kaiser Wilhelm Platz 1               #
                  #                 D-45470 Muelheim/Ruhr               #
                  #                      Germany                        #
                  #                                                     #
                  #                  All rights reserved                #
                  #                        -***-                        #
                  #######################################################


                         Program Version 4.2.1 -  RELEASE  -


 With contributions from (in alphabetic order):
   Daniel Aravena         : Magnetic Suceptibility
   Michael Atanasov       : Ab Initio Ligand Field Theory (pilot matlab implementation)
   Alexander A. Auer      : GIAO ZORA, VPT2
   Ute Becker             : Parallelization
   Giovanni Bistoni       : ED, misc. LED, open-shell LED, HFLD
   Martin Brehm           : Molecular dynamics
   Dmytro Bykov           : SCF Hessian
   Vijay G. Chilkuri      : MRCI spin determinant printing, contributions to CSF-ICE
   Dipayan Datta          : RHF DLPNO-CCSD density
   Achintya Kumar Dutta   : EOM-CC, STEOM-CC
   Dmitry Ganyushin       : Spin-Orbit,Spin-Spin,Magnetic field MRCI
   Miquel Garcia          : C-PCM Hessian, Gaussian charge scheme
   Yang Guo               : DLPNO-NEVPT2, CIM, IAO-localization
   Andreas Hansen         : Spin unrestricted coupled pair/coupled cluster methods
   Benjamin Helmich-Paris : CASSCF linear response (MC-RPA)
   Lee Huntington         : MR-EOM, pCC
   Robert Izsak           : Overlap fitted RIJCOSX, COSX-SCS-MP3, EOM
   Christian Kollmar      : KDIIS, OOCD, Brueckner-CCSD(T), CCSD density
   Simone Kossmann        : Meta GGA functionals, TD-DFT gradient, OOMP2, MP2 Hessian
   Martin Krupicka        : AUTO-CI
   Lucas Lang             : DCDCAS
   Dagmar Lenk            : GEPOL surface, SMD
   Dimitrios Liakos       : Extrapolation schemes; Compound Job, initial MDCI parallelization
   Dimitrios Manganas     : Further ROCIS development; embedding schemes
   Dimitrios Pantazis     : SARC Basis sets
   Taras Petrenko         : DFT Hessian,TD-DFT gradient, ASA, ECA, R-Raman, ABS, FL, XAS/XES, NRVS
   Peter Pinski           : DLPNO-MP2, DLPNO-MP2 Gradient
   Christoph Reimann      : Effective Core Potentials
   Marius Retegan         : Local ZFS, SOC
   Christoph Riplinger    : Optimizer, TS searches, QM/MM, DLPNO-CCSD(T), (RO)-DLPNO pert. Triples
   Tobias Risthaus        : Range-separated hybrids, TD-DFT gradient, RPA, STAB
   Michael Roemelt        : Original ROCIS implementation
   Masaaki Saitow         : Open-shell DLPNO-CCSD energy and density
   Barbara Sandhoefer     : DKH picture change effects
   Avijit Sen             : IP-ROCIS
   Kantharuban Sivalingam : CASSCF convergence, NEVPT2, FIC-MRCI
   Bernardo de Souza      : ESD, SOC TD-DFT
   Georgi Stoychev        : AutoAux, RI-MP2 NMR
   Willem Van den Heuvel  : Paramagnetic NMR
   Boris Wezisla          : Elementary symmetry handling
   Frank Wennmohs         : Technical directorship


 We gratefully acknowledge several colleagues who have allowed us to
 interface, adapt or use parts of their codes:
   Stefan Grimme, W. Hujo, H. Kruse,             : VdW corrections, initial TS optimization,
                  C. Bannwarth                     DFT functionals, gCP, sTDA/sTD-DF
   Ed Valeev, F. Pavosevic, A. Kumar             : LibInt (2-el integral package), F12 methods
   Garnet Chan, S. Sharma, J. Yang, R. Olivares  : DMRG
   Ulf Ekstrom                                   : XCFun DFT Library
   Mihaly Kallay                                 : mrcc  (arbitrary order and MRCC methods)
   Andreas Klamt, Michael Diedenhofen            : otool_cosmo (COSMO solvation model)
   Jiri Pittner, Ondrej Demel                    : Mk-CCSD
   Frank Weinhold                                : gennbo (NPA and NBO analysis)
   Christopher J. Cramer and Donald G. Truhlar   : smd solvation model
   Lars Goerigk                                  : TD-DFT with DH, B97 family of functionals
   V. Asgeirsson, H. Jonsson                     : NEB implementation
   FAccTs GmbH                                   : IRC, NEB, NEB-TS, Multilevel, MM, QM/MM, CI optimization
   S Lehtola, MJT Oliveira, MAL Marques          : LibXC Library


 Your calculation uses the libint2 library for the computation of 2-el integrals
 For citations please refer to: http://libint.valeyev.net

 Your ORCA version has been built with support for libXC version: 4.2.3
 For citations please refer to: https://tddft.org/programs/libxc/

 This ORCA versions uses:
   CBLAS   interface :  Fast vector & matrix operations
   LAPACKE interface :  Fast linear algebra routines
   SCALAPACK package :  Parallel linear algebra routines


SCAN-COORDS
----- Orbital basis set information -----
Your calculation utilizes the basis: def2-TZVP
   F. Weigend and R. Ahlrichs, Phys. Chem. Chem. Phys. 7, 3297 (2005).

----- AuxJ basis set information -----
Your calculation utilizes the auxiliary basis: def2/J
   F. Weigend, Phys. Chem. Chem. Phys. 8, 1057 (2006).

================================================================================
                                        WARNINGS
                       Please study these warnings very carefully!
================================================================================


WARNING: Geometry Optimization
  ===> : Switching off AutoStart
         For restart on a previous wavefunction, please use MOREAD

INFO   : the flag for use of LIBINT has been found!

================================================================================
                                       INPUT FILE
================================================================================
NAME = ./PH2N_PBE/input.inp
|  1> ! PBE
|  2> 
|  3> %method
|  4>         method DFT
|  5>         runtyp OPT
|  6> end
|  7> 
|  8> %basis
|  9>         basis "def2-TZVP"
| 10> end
| 11> ! NumFreq
| 12> %output
| 13>         XYZFile true
| 14> end
| 15> %coords
| 16>         CTyp xyz
| 17>         Charge -2
| 18>         Mult 1
| 19>         Units Angs
| 20>         coords
| 21>         P       -1.3964703605      0.5346218729     -0.0392481365                 
| 22> 	H        0.1725606238      0.5123737189     -0.0821591799
| 23>         end
| 24> end
| 25> 
| 26>                          ****END OF INPUT****
================================================================================

                       *****************************
                       * Geometry Optimization Run *
                       *****************************

Geometry optimization settings:
Update method            Update   .... BFGS
Choice of coordinates    CoordSys .... Z-matrix Internals
Initial Hessian          InHess   .... Almoef's Model

Convergence Tolerances:
Energy Change            TolE     ....  5.0000e-06 Eh
Max. Gradient            TolMAXG  ....  3.0000e-04 Eh/bohr
RMS Gradient             TolRMSG  ....  1.0000e-04 Eh/bohr
Max. Displacement        TolMAXD  ....  4.0000e-03 bohr
RMS Displacement         TolRMSD  ....  2.0000e-03 bohr
Strict Convergence                ....  False
------------------------------------------------------------------------------
                        ORCA OPTIMIZATION COORDINATE SETUP
------------------------------------------------------------------------------

The optimization will be done in new redundant internal coordinates
Making redundant internal coordinates   ...  (new redundants) done
Evaluating the initial hessian          ...  (Almloef) done
Evaluating the coordinates              ...  done
Calculating the B-matrix                .... done
Calculating the G-matrix                .... done
Diagonalizing the G-matrix              .... done
The first mode is                       ....    0
The number of degrees of freedom        ....    1

    -----------------------------------------------------------------
                    Redundant Internal Coordinates


    -----------------------------------------------------------------
         Definition                    Initial Value    Approx d2E/dq
    -----------------------------------------------------------------
      1. B(H   1,P   0)                  1.5698         0.207714   
    -----------------------------------------------------------------

Number of atoms                         .... 2
Number of degrees of freedom            .... 1

         *************************************************************
         *                GEOMETRY OPTIMIZATION CYCLE   1            *
         *************************************************************
---------------------------------
CARTESIAN COORDINATES (ANGSTROEM)
---------------------------------
  P     -1.396470    0.534622   -0.039248
  H      0.172561    0.512374   -0.082159

----------------------------
CARTESIAN COORDINATES (A.U.)
----------------------------
  NO LB      ZA    FRAG     MASS         X           Y           Z
   0 P    15.0000    0    30.974   -2.638947    1.010289   -0.074168
   1 H     1.0000    0     1.008    0.326092    0.968246   -0.155258

--------------------------------
INTERNAL COORDINATES (ANGSTROEM)
--------------------------------
 P      0   0   0     0.000000000000     0.00000000     0.00000000
 H      1   0   0     1.569775323954     0.00000000     0.00000000

---------------------------
INTERNAL COORDINATES (A.U.)
---------------------------
 P      0   0   0     0.000000000000     0.00000000     0.00000000
 H      1   0   0     2.966445454061     0.00000000     0.00000000

---------------------
BASIS SET INFORMATION
---------------------
There are 2 groups of distinct atoms

 Group   1 Type P   : 14s9p3d1f contracted to 5s5p2d1f pattern {73211/51111/21/1}
 Group   2 Type H   : 5s1p contracted to 3s1p pattern {311/1}

Atom   0P    basis set group =>   1
Atom   1H    basis set group =>   2
---------------------------------
AUXILIARY/J BASIS SET INFORMATION
---------------------------------
There are 2 groups of distinct atoms

 Group   1 Type P   : 14s5p5d2f1g contracted to 8s4p3d1f1g pattern {71111111/2111/311/2/1}
 Group   2 Type H   : 5s2p1d contracted to 3s1p1d pattern {311/2/1}

Atom   0P    basis set group =>   1
Atom   1H    basis set group =>   2
------------------------------------------------------------------------------
                           ORCA GTO INTEGRAL CALCULATION
                           -- RI-GTO INTEGRALS CHOSEN --
------------------------------------------------------------------------------

                         BASIS SET STATISTICS AND STARTUP INFO

Gaussian basis set:
 # of primitive gaussian shells          ...   33
 # of primitive gaussian functions       ...   71
 # of contracted shells                  ...   17
 # of contracted basis functions         ...   43
 Highest angular momentum                ...    3
 Maximum contraction depth               ...    7
Auxiliary gaussian basis set:
 # of primitive gaussian shells          ...   35
 # of primitive gaussian functions       ...   93
 # of contracted shells                  ...   22
 # of contracted aux-basis functions     ...   62
 Highest angular momentum                ...    4
 Maximum contraction depth               ...    7
Ratio of auxiliary to basis functions    ...  1.44
Integral package used                  ... LIBINT
 One Electron integrals                  ... done
 Ordering auxiliary basis shells         ... done
 Integral threshhold             Thresh  ...  2.500e-11
 Primitive cut-off               TCut    ...  2.500e-12
 Pre-screening matrix                    ... done
 Shell pair data                         ... 
 Ordering of the shell pairs             ... done (   0.000 sec) 153 of 153 pairs
 Determination of significant pairs      ... done (   0.000 sec)
 Creation of shell pair data             ... done (   0.000 sec)
 Storage of shell pair data              ... done (   0.000 sec)
 Shell pair data done in (   0.000 sec)
 Computing two index integrals           ... done
 Cholesky decomposition of the V-matrix  ... done


Timings:
 Total evaluation time                   ...   0.122 sec (  0.002 min)
 One electron matrix time                ...   0.005 sec (  0.000 min) =  4.1%
 Schwartz matrix evaluation time         ...   0.091 sec (  0.002 min) = 74.5%
 Two index repulsion integral time       ...   0.000 sec (  0.000 min) =  0.3%
 Cholesky decomposition of V             ...   0.000 sec (  0.000 min) =  0.2%
 Three index repulsion integral time     ...   0.000 sec (  0.000 min) =  0.0%

-------------------------------------------------------------------------------
                                 ORCA SCF
-------------------------------------------------------------------------------

------------
SCF SETTINGS
------------
Hamiltonian:
 Density Functional     Method          .... DFT(GTOs)
 Exchange Functional    Exchange        .... PBE
   PBE kappa parameter   XKappa         ....  0.804000
   PBE mue parameter    XMuePBE         ....  0.219520
 Correlation Functional Correlation     .... PBE
   PBE beta parameter  CBetaPBE         ....  0.066725
 LDA part of GGA corr.  LDAOpt          .... PW91-LDA
 Gradients option       PostSCFGGA      .... off
   Density functional embedding theory  .... OFF
   NL short-range parameter             ....  6.400000
 RI-approximation to the Coulomb term is turned on
   Number of auxiliary basis functions  .... 62


General Settings:
 Integral files         IntName         .... ./PH2N_PBE/input
 Hartree-Fock type      HFTyp           .... RHF
 Total Charge           Charge          ....   -2
 Multiplicity           Mult            ....    1
 Number of Electrons    NEL             ....   18
 Basis Dimension        Dim             ....   43
 Nuclear Repulsion      ENuc            ....      5.0565568227 Eh

Convergence Acceleration:
 DIIS                   CNVDIIS         .... on
   Start iteration      DIISMaxIt       ....    12
   Startup error        DIISStart       ....  0.200000
   # of expansion vecs  DIISMaxEq       ....     5
   Bias factor          DIISBfac        ....   1.050
   Max. coefficient     DIISMaxC        ....  10.000
 Newton-Raphson         CNVNR           .... off
 SOSCF                  CNVSOSCF        .... on
   Start iteration      SOSCFMaxIt      ....   150
   Startup grad/error   SOSCFStart      ....  0.003300
 Level Shifting         CNVShift        .... on
   Level shift para.    LevelShift      ....    0.2500
   Turn off err/grad.   ShiftErr        ....    0.0010
 Zerner damping         CNVZerner       .... off
 Static damping         CNVDamp         .... on
   Fraction old density DampFac         ....    0.7000
   Max. Damping (<1)    DampMax         ....    0.9800
   Min. Damping (>=0)   DampMin         ....    0.0000
   Turn off err/grad.   DampErr         ....    0.1000
 Fernandez-Rico         CNVRico         .... off

SCF Procedure:
 Maximum # iterations   MaxIter         ....   125
 SCF integral mode      SCFMode         .... Direct
   Integral package                     .... LIBINT
 Reset frequency        DirectResetFreq ....    20
 Integral Threshold     Thresh          ....  2.500e-11 Eh
 Primitive CutOff       TCut            ....  2.500e-12 Eh

Convergence Tolerance:
 Convergence Check Mode ConvCheckMode   .... Total+1el-Energy
 Convergence forced     ConvForced      .... 0
 Energy Change          TolE            ....  1.000e-08 Eh
 1-El. energy change                    ....  1.000e-05 Eh
 Orbital Gradient       TolG            ....  1.000e-05
 Orbital Rotation angle TolX            ....  1.000e-05
 DIIS Error             TolErr          ....  5.000e-07


Diagonalization of the overlap matrix:
Smallest eigenvalue                        ... 2.949e-02
Time for diagonalization                   ...    0.001 sec
Threshold for overlap eigenvalues          ... 1.000e-08
Number of eigenvalues below threshold      ... 0
Time for construction of square roots      ...    0.000 sec
Total time needed                          ...    0.001 sec

-------------------
DFT GRID GENERATION
-------------------

General Integration Accuracy     IntAcc      ...  4.340
Radial Grid Type                 RadialGrid  ... Gauss-Chebyshev
Angular Grid (max. acc.)         AngularGrid ... Lebedev-110
Angular grid pruning method      GridPruning ... 3 (G Style)
Weight generation scheme         WeightScheme... Becke
Basis function cutoff            BFCut       ...    1.0000e-11
Integration weight cutoff        WCut        ...    1.0000e-14
Grids for H and He will be reduced by one unit

# of grid points (after initial pruning)     ...   2600 (   0.0 sec)
# of grid points (after weights+screening)   ...   2577 (   0.0 sec)
nearest neighbour list constructed           ...    0.0 sec
Grid point re-assignment to atoms done       ...    0.0 sec
Grid point division into batches done        ...    0.0 sec
Reduced shell lists constructed in    0.0 sec

Total number of grid points                  ...     2577
Total number of batches                      ...       41
Average number of points per batch           ...       62
Average number of grid points per atom       ...     1288
Average number of shells per batch           ...    14.31 (84.17%)
Average number of basis functions per batch  ...    38.17 (88.76%)
Average number of large shells per batch     ...    13.40 (93.68%)
Average number of large basis fcns per batch ...    35.79 (93.76%)
Maximum spatial batch extension              ...  18.23, 32.81, 32.81 au
Average spatial batch extension              ...   6.05,  8.49,  8.72 au

Time for grid setup =    0.011 sec

------------------------------
INITIAL GUESS: MODEL POTENTIAL
------------------------------
Loading Hartree-Fock densities                     ... done
Calculating cut-offs                               ... done
Setting up the integral package                    ... done
Initializing the effective Hamiltonian             ... done
Starting the Coulomb interaction                   ... done (   0.0 sec)
Reading the grid                                   ... done
Mapping shells                                     ... done
Starting the XC term evaluation                    ... done (   0.0 sec)
  promolecular density results
     # of electrons  =     15.996772472
     EX              =    -22.718489395
     EC              =     -0.574595309
     EX+EC           =    -23.293084705
Transforming the Hamiltonian                       ... done (   0.0 sec)
Diagonalizing the Hamiltonian                      ... done (   0.0 sec)
Back transforming the eigenvectors                 ... done (   0.0 sec)
Now organizing SCF variables                       ... done
                      ------------------
                      INITIAL GUESS DONE (   0.1 sec)
                      ------------------
--------------
SCF ITERATIONS
--------------
ITER       Energy         Delta-E        Max-DP      RMS-DP      [F,P]     Damp
               ***  Starting incremental Fock matrix formation  ***
  0   -341.3220462129   0.000000000000 0.26427126  0.01340293  0.2539974 0.7000
  1   -341.4217876361  -0.099741423266 0.24613365  0.01137052  0.1370964 0.7000
                               ***Turning on DIIS***
  2   -341.4619075782  -0.040119942117 0.44023357  0.01982977  0.0458337 0.0000
  3   -341.4912498075  -0.029342229213 0.04400350  0.00216608  0.1053942 0.7000
  4   -341.5007260367  -0.009476229276 0.17144023  0.00812946  0.0884180 0.0000
  5   -341.5234161634  -0.022690126650 0.03753495  0.00165572  0.0237662 0.0000
  6   -341.5246937519  -0.001277588511 0.01953099  0.00084757  0.0107181 0.0000
  7   -341.5249800755  -0.000286323577 0.00791725  0.00033826  0.0039722 0.0000
                      *** Initiating the SOSCF procedure ***
                           *** Shutting down DIIS ***
                      *** Re-Reading the Fockian *** 
                      *** Removing any level shift *** 
ITER      Energy       Delta-E        Grad      Rot      Max-DP    RMS-DP
  8   -341.52502136  -0.0000412877  0.000471  0.000471  0.003179  0.000137
               *** Restarting incremental Fock matrix formation ***
  9   -341.52502752  -0.0000061522  0.000360  0.001087  0.004124  0.000188
 10   -341.52502635   0.0000011674  0.000488  0.000556  0.002035  0.000100
 11   -341.52502856  -0.0000022163  0.000030  0.000090  0.000152  0.000009
 12   -341.52502856   0.0000000066  0.000039  0.000060  0.000082  0.000005
 13   -341.52502857  -0.0000000167  0.000008  0.000005  0.000018  0.000001
 14   -341.52502858  -0.0000000027  0.000004  0.000002  0.000005  0.000000
                 **** Energy Check signals convergence ****
              ***Rediagonalizing the Fockian in SOSCF/NRSCF***

               *****************************************************
               *                     SUCCESS                       *
               *           SCF CONVERGED AFTER  15 CYCLES          *
               *****************************************************

Setting up the final grid:

General Integration Accuracy     IntAcc      ...  4.670
Radial Grid Type                 RadialGrid  ... Gauss-Chebyshev
Angular Grid (max. acc.)         AngularGrid ... Lebedev-302
Angular grid pruning method      GridPruning ... 3 (G Style)
Weight generation scheme         WeightScheme... Becke
Basis function cutoff            BFCut       ...    1.0000e-11
Integration weight cutoff        WCut        ...    1.0000e-14
Grids for H and He will be reduced by one unit

# of grid points (after initial pruning)     ...  10240 (   0.0 sec)
# of grid points (after weights+screening)   ...  10215 (   0.0 sec)
nearest neighbour list constructed           ...    0.0 sec
Grid point re-assignment to atoms done       ...    0.0 sec
Grid point division into batches done        ...    0.0 sec
Reduced shell lists constructed in    0.1 sec

Total number of grid points                  ...    10215
Total number of batches                      ...      161
Average number of points per batch           ...       63
Average number of grid points per atom       ...     5108
Average number of shells per batch           ...    13.14 (77.31%)
Average number of basis functions per batch  ...    34.80 (80.92%)
Average number of large shells per batch     ...    12.08 (91.92%)
Average number of large basis fcns per batch ...    32.41 (93.15%)
Maximum spatial batch extension              ...  19.91, 25.33, 25.33 au
Average spatial batch extension              ...   4.10,  4.86,  4.72 au

Final grid set up in    0.1 sec
Final integration                            ... done (   0.0 sec)
Change in XC energy                          ...    -0.001449128
Integrated number of electrons               ...    17.999999775
Previous integrated no of electrons          ...    17.995596803

----------------
TOTAL SCF ENERGY
----------------

Total Energy       :         -341.52647770 Eh           -9293.40793 eV

Components:
Nuclear Repulsion  :            5.05655682 Eh             137.59591 eV
Electronic Energy  :         -346.58303453 Eh           -9431.00383 eV
One Electron Energy:         -491.27021100 Eh          -13368.14206 eV
Two Electron Energy:          144.68717647 Eh            3937.13823 eV

Virial components:
Potential Energy   :         -682.61069870 Eh          -18574.78144 eV
Kinetic Energy     :          341.08422100 Eh            9281.37351 eV
Virial Ratio       :            2.00129662


DFT components:
N(Alpha)           :        8.999999887351 electrons
N(Beta)            :        8.999999887351 electrons
N(Total)           :       17.999999774701 electrons
E(X)               :      -23.114687901357 Eh       
E(C)               :       -0.638794701713 Eh       
E(XC)              :      -23.753482603070 Eh       
DFET-embed. en.    :        0.000000000000 Eh       

---------------
SCF CONVERGENCE
---------------

  Last Energy change         ...    1.8289e-09  Tolerance :   1.0000e-08
  Last MAX-Density change    ...    2.6383e-07  Tolerance :   1.0000e-07
  Last RMS-Density change    ...    1.2533e-08  Tolerance :   5.0000e-09
  Last Orbital Gradient      ...    5.0546e-08  Tolerance :   1.0000e-05
  Last Orbital Rotation      ...    1.1837e-07  Tolerance :   1.0000e-05

             **** THE GBW FILE WAS UPDATED (./PH2N_PBE/input.gbw) ****
             **** DENSITY FILE WAS UPDATED (./PH2N_PBE/input.scfp) ****
             **** ENERGY FILE WAS UPDATED (./PH2N_PBE/input.en.tmp) ****
             **** THE GBW FILE WAS UPDATED (./PH2N_PBE/input.gbw) ****
             **** DENSITY FILE WAS UPDATED (./PH2N_PBE/input.scfp) ****
----------------
ORBITAL ENERGIES
----------------

  NO   OCC          E(Eh)            E(eV) 
   0   2.0000     -75.758326     -2061.4889 
   1   2.0000      -5.755062      -156.6032 
   2   2.0000      -3.972051      -108.0850 
   3   2.0000      -3.969701      -108.0211 
   4   2.0000      -3.969699      -108.0210 
   5   2.0000       0.018868         0.5134 
   6   2.0000       0.211804         5.7635 
   7   2.0000       0.328775         8.9464 
   8   2.0000       0.328789         8.9468 
   9   0.0000       0.424517        11.5517 
  10   0.0000       0.583006        15.8644 
  11   0.0000       0.659764        17.9531 
  12   0.0000       0.659787        17.9537 
  13   0.0000       0.681591        18.5470 
  14   0.0000       0.748281        20.3618 
  15   0.0000       0.748317        20.3627 
  16   0.0000       0.773657        21.0523 
  17   0.0000       0.775675        21.1072 
  18   0.0000       0.844802        22.9882 
  19   0.0000       0.967303        26.3216 
  20   0.0000       1.644169        44.7401 
  21   0.0000       1.644182        44.7405 
  22   0.0000       1.670504        45.4567 
  23   0.0000       1.693896        46.0932 
  24   0.0000       1.693920        46.0939 
  25   0.0000       1.696216        46.1564 
  26   0.0000       1.697351        46.1873 
  27   0.0000       1.821657        49.5698 
  28   0.0000       1.823310        49.6148 
  29   0.0000       1.837579        50.0031 
  30   0.0000       1.837599        50.0036 
  31   0.0000       1.919569        52.2341 
  32   0.0000       1.940731        52.8100 
  33   0.0000       1.940764        52.8109 
  34   0.0000       2.005799        54.5806 
  35   0.0000       2.328156        63.3523 
  36   0.0000       2.328201        63.3536 
  37   0.0000       2.737302        74.4858 
  38   0.0000       3.027243        82.3755 
  39   0.0000       7.606214       206.9756 
  40   0.0000       7.606236       206.9762 
  41   0.0000       7.642713       207.9688 
  42   0.0000      13.398562       364.5934 

                    ********************************
                    * MULLIKEN POPULATION ANALYSIS *
                    ********************************

-----------------------
MULLIKEN ATOMIC CHARGES
-----------------------
   0 P :   -1.744393
   1 H :   -0.255607
Sum of atomic charges:   -2.0000000

--------------------------------
MULLIKEN REDUCED ORBITAL CHARGES
--------------------------------
  0 P s       :     5.885721  s :     5.885721
      pz      :     3.993787  p :    10.830623
      px      :     2.842354
      py      :     3.994482
      dz2     :     0.005708  d :     0.024161
      dxz     :     0.000661
      dyz     :     0.000001
      dx2y2   :     0.017163
      dxy     :     0.000628
      f0      :     0.000092  f :     0.003887
      f+1     :     0.001285
      f-1     :     0.000011
      f+2     :     0.000139
      f-2     :     0.000001
      f+3     :     0.002149
      f-3     :     0.000210
  1 H s       :     1.241954  s :     1.241954
      pz      :     0.004423  p :     0.013653
      px      :     0.004803
      py      :     0.004426


                     *******************************
                     * LOEWDIN POPULATION ANALYSIS *
                     *******************************

----------------------
LOEWDIN ATOMIC CHARGES
----------------------
   0 P :   -1.833938
   1 H :   -0.166062

-------------------------------
LOEWDIN REDUCED ORBITAL CHARGES
-------------------------------
  0 P s       :     5.768289  s :     5.768289
      pz      :     3.987306  p :    10.999173
      px      :     3.024006
      py      :     3.987862
      dz2     :     0.014105  d :     0.057498
      dxz     :     0.000536
      dyz     :     0.000001
      dx2y2   :     0.042408
      dxy     :     0.000447
      f0      :     0.000052  f :     0.008978
      f+1     :     0.003272
      f-1     :     0.000005
      f+2     :     0.000077
      f-2     :     0.000000
      f+3     :     0.005477
      f-3     :     0.000096
  1 H s       :     1.121092  s :     1.121092
      pz      :     0.011438  p :     0.044970
      px      :     0.022101
      py      :     0.011431


                      *****************************
                      * MAYER POPULATION ANALYSIS *
                      *****************************

  NA   - Mulliken gross atomic population
  ZA   - Total nuclear charge
  QA   - Mulliken gross atomic charge
  VA   - Mayer's total valence
  BVA  - Mayer's bonded valence
  FA   - Mayer's free valence

  ATOM       NA         ZA         QA         VA         BVA        FA
  0 P     16.7444    15.0000    -1.7444     0.9235     0.9235    -0.0000
  1 H      1.2556     1.0000    -0.2556     0.9235     0.9235    -0.0000

  Mayer bond orders larger than 0.100000
B(  0-P ,  1-H ) :   0.9235 

-------
TIMINGS
-------

Total SCF time: 0 days 0 hours 0 min 2 sec 

Total time                  ....       2.192 sec
Sum of individual times     ....       2.079 sec  ( 94.9%)

Fock matrix formation       ....       1.829 sec  ( 83.4%)
  Split-RI-J                ....       1.580 sec  ( 86.4% of F)
  XC integration            ....       0.238 sec  ( 13.0% of F)
    Basis function eval.    ....       0.076 sec  ( 31.9% of XC)
    Density eval.           ....       0.044 sec  ( 18.7% of XC)
    XC-Functional eval.     ....       0.055 sec  ( 23.1% of XC)
    XC-Potential eval.      ....       0.045 sec  ( 19.1% of XC)
Diagonalization             ....       0.004 sec  (  0.2%)
Density matrix formation    ....       0.000 sec  (  0.0%)
Population analysis         ....       0.001 sec  (  0.0%)
Initial guess               ....       0.117 sec  (  5.3%)
Orbital Transformation      ....       0.000 sec  (  0.0%)
Orbital Orthonormalization  ....       0.000 sec  (  0.0%)
DIIS solution               ....       0.002 sec  (  0.1%)
SOSCF solution              ....       0.040 sec  (  1.8%)
Grid generation             ....       0.088 sec  (  4.0%)

-------------------------   --------------------
FINAL SINGLE POINT ENERGY      -341.526477703406
-------------------------   --------------------

------------------------------------------------------------------------------
                         ORCA SCF GRADIENT CALCULATION
------------------------------------------------------------------------------

Gradient of the Kohn-Sham DFT energy:
Kohn-Sham wavefunction type      ... RKS
Hartree-Fock exchange scaling    ...    0.000
Number of operators              ...    1
Number of atoms                  ...    2
Basis set dimensions             ...   43
Integral neglect threshold       ... 2.5e-11
Integral primitive cutoff        ... 2.5e-12

Nuclear repulsion gradient       ... done
One Electron Gradient            ... done
Pre-screening matrix             ... done
RI-J gradient                    ... done
Exchange-correlation gradient    ... done

------------------
CARTESIAN GRADIENT
------------------

   1   P   :   -0.016914206    0.000171970    0.000332072
   2   H   :    0.016914206   -0.000171970   -0.000332072

Difference to translation invariance:
           :    0.0000000000    0.0000000000    0.0000000000

Norm of the cartesian gradient     ...    0.0239261455
RMS gradient                       ...    0.0097678080
MAX gradient                       ...    0.0169142063

-------
TIMINGS
-------

Total SCF gradient time            ...        0.449 sec

One electron gradient       ....       0.002 sec  (  0.6%)
Prescreening matrices       ....       0.048 sec  ( 10.6%)
RI-J Coulomb gradient       ....       0.097 sec  ( 21.5%)
XC gradient                 ....       0.149 sec  ( 33.2%)
------------------------------------------------------------------------------
                         ORCA GEOMETRY RELAXATION STEP
------------------------------------------------------------------------------

Reading the OPT-File                    .... done
Getting information on internals        .... done
Copying old internal coords+grads       .... done
Making the new internal coordinates     .... (new redundants).... done
Validating the new internal coordinates .... (new redundants).... done
Calculating the B-matrix                .... done
Calculating the G,G- and P matrices     .... done
Transforming gradient to internals      .... done
Projecting the internal gradient        .... done
Number of atoms                         ....   2
Number of internal coordinates          ....   1
Current Energy                          ....  -341.526477703 Eh
Current gradient norm                   ....     0.023926145 Eh/bohr
Maximum allowed component of the step   ....  0.300
Current trust radius                    ....  0.300
Evaluating the initial hessian          ....  (Almloef) done
Projecting the Hessian                  .... done
Forming the augmented Hessian           .... done
Diagonalizing the augmented Hessian     .... done
Last element of RFO vector              ....  0.996742467
Lowest eigenvalues of augmented Hessian:
 -0.001368875
Length of the computed step             ....  0.080913782
The final length of the internal step   ....  0.080913782
Converting the step to cartesian space:
 Initial RMS(Int)=    0.0809137819
Transforming coordinates:
 Iter   0:  RMS(Cart)=    0.0233577969 RMS(Int)=    0.0809137819
 Iter   1:  RMS(Cart)=    0.0000000000 RMS(Int)=    0.0000000000
done
Storing new coordinates                 .... done

                                .--------------------.
          ----------------------|Geometry convergence|-------------------------
          Item                value                   Tolerance       Converged
          ---------------------------------------------------------------------
          RMS gradient        0.0169177008            0.0001000000      NO
          MAX gradient        0.0169177008            0.0003000000      NO
          RMS step            0.0809137819            0.0020000000      NO
          MAX step            0.0809137819            0.0040000000      NO
          ........................................................
          Max(Bonds)      0.0428      Max(Angles)    0.00
          Max(Dihed)        0.00      Max(Improp)    0.00
          ---------------------------------------------------------------------

The optimization has not yet converged - more geometry cycles are needed


    ---------------------------------------------------------------------------
                         Redundant Internal Coordinates
                            (Angstroem and degrees)

        Definition                    Value    dE/dq     Step     New-Value
    ----------------------------------------------------------------------------
     1. B(H   1,P   0)                1.5698  0.016918 -0.0428    1.5270   
    ----------------------------------------------------------------------------

         *************************************************************
         *                GEOMETRY OPTIMIZATION CYCLE   2            *
         *************************************************************
---------------------------------
CARTESIAN COORDINATES (ANGSTROEM)
---------------------------------
  P     -1.375072    0.534318   -0.039833
  H      0.151162    0.512677   -0.081574

----------------------------
CARTESIAN COORDINATES (A.U.)
----------------------------
  NO LB      ZA    FRAG     MASS         X           Y           Z
   0 P    15.0000    0    30.974   -2.598509    1.009716   -0.075274
   1 H     1.0000    0     1.008    0.285655    0.968819   -0.154152

--------------------------------
INTERNAL COORDINATES (ANGSTROEM)
--------------------------------
 P      0   0   0     0.000000000000     0.00000000     0.00000000
 H      1   0   0     1.526957594757     0.00000000     0.00000000

---------------------------
INTERNAL COORDINATES (A.U.)
---------------------------
 P      0   0   0     0.000000000000     0.00000000     0.00000000
 H      1   0   0     2.885531672203     0.00000000     0.00000000

 One Electron integrals                  ... done
 Pre-screening matrix                    ... done

Diagonalization of the overlap matrix:
Smallest eigenvalue                        ... 2.787e-02
Time for diagonalization                   ...    0.001 sec
Threshold for overlap eigenvalues          ... 1.000e-08
Number of eigenvalues below threshold      ... 0
Time for construction of square roots      ...    0.000 sec
Total time needed                          ...    0.001 sec

-------------------
DFT GRID GENERATION
-------------------

General Integration Accuracy     IntAcc      ...  4.340
Radial Grid Type                 RadialGrid  ... Gauss-Chebyshev
Angular Grid (max. acc.)         AngularGrid ... Lebedev-110
Angular grid pruning method      GridPruning ... 3 (G Style)
Weight generation scheme         WeightScheme... Becke
Basis function cutoff            BFCut       ...    1.0000e-11
Integration weight cutoff        WCut        ...    1.0000e-14
Grids for H and He will be reduced by one unit

# of grid points (after initial pruning)     ...   2600 (   0.0 sec)
# of grid points (after weights+screening)   ...   2577 (   0.0 sec)
nearest neighbour list constructed           ...    0.0 sec
Grid point re-assignment to atoms done       ...    0.0 sec
Grid point division into batches done        ...    0.0 sec
Reduced shell lists constructed in    0.0 sec

Total number of grid points                  ...     2577
Total number of batches                      ...       41
Average number of points per batch           ...       62
Average number of grid points per atom       ...     1288
Average number of shells per batch           ...    14.33 (84.31%)
Average number of basis functions per batch  ...    38.24 (88.93%)
Average number of large shells per batch     ...    13.57 (94.68%)
Average number of large basis fcns per batch ...    36.14 (94.52%)
Maximum spatial batch extension              ...  18.23, 32.81, 32.81 au
Average spatial batch extension              ...   6.04,  8.63,  8.71 au

Time for grid setup =    0.011 sec

--------------
SCF ITERATIONS
--------------
ITER       Energy         Delta-E        Max-DP      RMS-DP      [F,P]     Damp
               ***  Starting incremental Fock matrix formation  ***
  0   -341.5259726937   0.000000000000 0.00404804  0.00015386  0.0099585 0.7000
                      *** Initiating the SOSCF procedure ***
                      *** Re-Reading the Fockian *** 
                      *** Removing any level shift *** 
ITER      Energy       Delta-E        Grad      Rot      Max-DP    RMS-DP
  1   -341.52602449  -0.0000517954  0.001163  0.001163  0.016436  0.000606
               *** Restarting incremental Fock matrix formation ***
  2   -341.52613834  -0.0001138520  0.000652  0.002995  0.005901  0.000367
  3   -341.52613494   0.0000034013  0.000937  0.001115  0.002475  0.000145
  4   -341.52614584  -0.0000108960  0.000058  0.000073  0.000251  0.000013
  5   -341.52614585  -0.0000000109  0.000034  0.000049  0.000177  0.000009
  6   -341.52614585  -0.0000000073  0.000020  0.000022  0.000055  0.000003
  7   -341.52614585  -0.0000000004  0.000012  0.000007  0.000014  0.000001
                  ***Gradient check signals convergence***
              ***Rediagonalizing the Fockian in SOSCF/NRSCF***

               *****************************************************
               *                     SUCCESS                       *
               *           SCF CONVERGED AFTER   8 CYCLES          *
               *****************************************************

Setting up the final grid:

General Integration Accuracy     IntAcc      ...  4.670
Radial Grid Type                 RadialGrid  ... Gauss-Chebyshev
Angular Grid (max. acc.)         AngularGrid ... Lebedev-302
Angular grid pruning method      GridPruning ... 3 (G Style)
Weight generation scheme         WeightScheme... Becke
Basis function cutoff            BFCut       ...    1.0000e-11
Integration weight cutoff        WCut        ...    1.0000e-14
Grids for H and He will be reduced by one unit

# of grid points (after initial pruning)     ...  10240 (   0.0 sec)
# of grid points (after weights+screening)   ...  10215 (   0.0 sec)
nearest neighbour list constructed           ...    0.0 sec
Grid point re-assignment to atoms done       ...    0.0 sec
Grid point division into batches done        ...    0.0 sec
Reduced shell lists constructed in    0.1 sec

Total number of grid points                  ...    10215
Total number of batches                      ...      160
Average number of points per batch           ...       63
Average number of grid points per atom       ...     5108
Average number of shells per batch           ...    13.11 (77.13%)
Average number of basis functions per batch  ...    34.73 (80.76%)
Average number of large shells per batch     ...    12.11 (92.33%)
Average number of large basis fcns per batch ...    32.44 (93.42%)
Maximum spatial batch extension              ...  19.91, 25.33, 25.33 au
Average spatial batch extension              ...   3.98,  4.87,  4.76 au

Final grid set up in    0.1 sec
Final integration                            ... done (   0.0 sec)
Change in XC energy                          ...    -0.001426705
Integrated number of electrons               ...    18.000000871
Previous integrated no of electrons          ...    17.997084991
Total Energy       :         -341.52757256 Eh           -9293.43772 eV
  Last Energy change         ...   -2.1931e-09  Tolerance :   1.0000e-08
  Last MAX-Density change    ...    2.5864e-06  Tolerance :   1.0000e-07
             **** THE GBW FILE WAS UPDATED (./PH2N_PBE/input.gbw) ****
             **** DENSITY FILE WAS UPDATED (./PH2N_PBE/input.scfp) ****
             **** ENERGY FILE WAS UPDATED (./PH2N_PBE/input.en.tmp) ****
             **** THE GBW FILE WAS UPDATED (./PH2N_PBE/input.gbw) ****
             **** DENSITY FILE WAS UPDATED (./PH2N_PBE/input.scfp) ****
Total SCF time: 0 days 0 hours 0 min 1 sec 

-------------------------   --------------------
FINAL SINGLE POINT ENERGY      -341.527572561722
-------------------------   --------------------

------------------------------------------------------------------------------
                         ORCA SCF GRADIENT CALCULATION
------------------------------------------------------------------------------

Gradient of the Kohn-Sham DFT energy:
Kohn-Sham wavefunction type      ... RKS
Hartree-Fock exchange scaling    ...    0.000
Number of operators              ...    1
Number of atoms                  ...    2
Basis set dimensions             ...   43
Integral neglect threshold       ... 2.5e-11
Integral primitive cutoff        ... 2.5e-12

Nuclear repulsion gradient       ... done
One Electron Gradient            ... done
Pre-screening matrix             ... done
RI-J gradient                    ... done
Exchange-correlation gradient    ... done

------------------
CARTESIAN GRADIENT
------------------

   1   P   :   -0.009102547    0.000052887    0.000102181
   2   H   :    0.009102547   -0.000052887   -0.000102181

Difference to translation invariance:
           :    0.0000000000   -0.0000000000    0.0000000000

Norm of the cartesian gradient     ...    0.0128739743
RMS gradient                       ...    0.0052557780
MAX gradient                       ...    0.0091025474

-------
TIMINGS
-------

Total SCF gradient time            ...        0.478 sec

One electron gradient       ....       0.003 sec  (  0.5%)
Prescreening matrices       ....       0.049 sec  ( 10.3%)
RI-J Coulomb gradient       ....       0.095 sec  ( 19.8%)
XC gradient                 ....       0.154 sec  ( 32.2%)
------------------------------------------------------------------------------
                         ORCA GEOMETRY RELAXATION STEP
------------------------------------------------------------------------------

Reading the OPT-File                    .... done
Getting information on internals        .... done
Copying old internal coords+grads       .... done
Making the new internal coordinates     .... (new redundants).... done
Validating the new internal coordinates .... (new redundants).... done
Calculating the B-matrix                .... done
Calculating the G,G- and P matrices     .... done
Transforming gradient to internals      .... done
Projecting the internal gradient        .... done
Number of atoms                         ....   2
Number of internal coordinates          ....   1
Current Energy                          ....  -341.527572562 Eh
Current gradient norm                   ....     0.012873974 Eh/bohr
Maximum allowed component of the step   ....  0.300
Current trust radius                    ....  0.300
Updating the Hessian (BFGS)             .... done
Forming the augmented Hessian           .... done
Diagonalizing the augmented Hessian     .... done
Last element of RFO vector              ....  0.995666241
Lowest eigenvalues of augmented Hessian:
 -0.000850136
Length of the computed step             ....  0.093403376
The final length of the internal step   ....  0.093403376
Converting the step to cartesian space:
 Initial RMS(Int)=    0.0934033758
Transforming coordinates:
 Iter   0:  RMS(Cart)=    0.0269632321 RMS(Int)=    0.0934033758
 Iter   1:  RMS(Cart)=    0.0000000000 RMS(Int)=    0.0000000000
done
Storing new coordinates                 .... done

                                .--------------------.
          ----------------------|Geometry convergence|-------------------------
          Item                value                   Tolerance       Converged
          ---------------------------------------------------------------------
          Energy change      -0.0010948583            0.0000050000      NO
          RMS gradient        0.0091017740            0.0001000000      NO
          MAX gradient        0.0091017740            0.0003000000      NO
          RMS step            0.0934033758            0.0020000000      NO
          MAX step            0.0934033758            0.0040000000      NO
          ........................................................
          Max(Bonds)      0.0494      Max(Angles)    0.00
          Max(Dihed)        0.00      Max(Improp)    0.00
          ---------------------------------------------------------------------

The optimization has not yet converged - more geometry cycles are needed


    ---------------------------------------------------------------------------
                         Redundant Internal Coordinates
                            (Angstroem and degrees)

        Definition                    Value    dE/dq     Step     New-Value
    ----------------------------------------------------------------------------
     1. B(H   1,P   0)                1.5270  0.009102 -0.0494    1.4775   
    ----------------------------------------------------------------------------

         *************************************************************
         *                GEOMETRY OPTIMIZATION CYCLE   3            *
         *************************************************************
---------------------------------
CARTESIAN COORDINATES (ANGSTROEM)
---------------------------------
  P     -1.350370    0.533968   -0.040509
  H      0.126460    0.513027   -0.080898

----------------------------
CARTESIAN COORDINATES (A.U.)
----------------------------
  NO LB      ZA    FRAG     MASS         X           Y           Z
   0 P    15.0000    0    30.974   -2.551829    1.009054   -0.076551
   1 H     1.0000    0     1.008    0.238975    0.969481   -0.152876

--------------------------------
INTERNAL COORDINATES (ANGSTROEM)
--------------------------------
 P      0   0   0     0.000000000000     0.00000000     0.00000000
 H      1   0   0     1.477530657090     0.00000000     0.00000000

---------------------------
INTERNAL COORDINATES (A.U.)
---------------------------
 P      0   0   0     0.000000000000     0.00000000     0.00000000
 H      1   0   0     2.792128296373     0.00000000     0.00000000

 One Electron integrals                  ... done
 Pre-screening matrix                    ... done

Diagonalization of the overlap matrix:
Smallest eigenvalue                        ... 2.490e-02
Time for diagonalization                   ...    0.001 sec
Threshold for overlap eigenvalues          ... 1.000e-08
Number of eigenvalues below threshold      ... 0
Time for construction of square roots      ...    0.000 sec
Total time needed                          ...    0.001 sec

-------------------
DFT GRID GENERATION
-------------------

General Integration Accuracy     IntAcc      ...  4.340
Radial Grid Type                 RadialGrid  ... Gauss-Chebyshev
Angular Grid (max. acc.)         AngularGrid ... Lebedev-110
Angular grid pruning method      GridPruning ... 3 (G Style)
Weight generation scheme         WeightScheme... Becke
Basis function cutoff            BFCut       ...    1.0000e-11
Integration weight cutoff        WCut        ...    1.0000e-14
Grids for H and He will be reduced by one unit

# of grid points (after initial pruning)     ...   2600 (   0.0 sec)
# of grid points (after weights+screening)   ...   2577 (   0.0 sec)
nearest neighbour list constructed           ...    0.0 sec
Grid point re-assignment to atoms done       ...    0.0 sec
Grid point division into batches done        ...    0.0 sec
Reduced shell lists constructed in    0.0 sec

Total number of grid points                  ...     2577
Total number of batches                      ...       41
Average number of points per batch           ...       62
Average number of grid points per atom       ...     1288
Average number of shells per batch           ...    14.38 (84.59%)
Average number of basis functions per batch  ...    38.29 (89.04%)
Average number of large shells per batch     ...    13.55 (94.21%)
Average number of large basis fcns per batch ...    36.21 (94.59%)
Maximum spatial batch extension              ...  18.23, 32.81, 32.81 au
Average spatial batch extension              ...   6.03,  8.47,  8.64 au

Time for grid setup =    0.010 sec

--------------
SCF ITERATIONS
--------------
ITER       Energy         Delta-E        Max-DP      RMS-DP      [F,P]     Damp
               ***  Starting incremental Fock matrix formation  ***
  0   -341.5263761313   0.000000000000 0.00467424  0.00018234  0.0124364 0.7000
                      *** Initiating the SOSCF procedure ***
                      *** Re-Reading the Fockian *** 
                      *** Removing any level shift *** 
ITER      Energy       Delta-E        Grad      Rot      Max-DP    RMS-DP
  1   -341.52645090  -0.0000747663  0.001371  0.001371  0.018928  0.000721
               *** Restarting incremental Fock matrix formation ***
  2   -341.52661090  -0.0001600064  0.000823  0.003693  0.007789  0.000468
  3   -341.52660502   0.0000058829  0.001195  0.001385  0.003218  0.000188
  4   -341.52662276  -0.0000177376  0.000073  0.000072  0.000157  0.000011
  5   -341.52662278  -0.0000000255  0.000027  0.000034  0.000127  0.000007
  6   -341.52662279  -0.0000000044  0.000012  0.000020  0.000068  0.000003
  7   -341.52662279   0.0000000003  0.000013  0.000008  0.000019  0.000001
                  ***Gradient check signals convergence***
              ***Rediagonalizing the Fockian in SOSCF/NRSCF***

               *****************************************************
               *                     SUCCESS                       *
               *           SCF CONVERGED AFTER   8 CYCLES          *
               *****************************************************

Setting up the final grid:

General Integration Accuracy     IntAcc      ...  4.670
Radial Grid Type                 RadialGrid  ... Gauss-Chebyshev
Angular Grid (max. acc.)         AngularGrid ... Lebedev-302
Angular grid pruning method      GridPruning ... 3 (G Style)
Weight generation scheme         WeightScheme... Becke
Basis function cutoff            BFCut       ...    1.0000e-11
Integration weight cutoff        WCut        ...    1.0000e-14
Grids for H and He will be reduced by one unit

# of grid points (after initial pruning)     ...  10240 (   0.0 sec)
# of grid points (after weights+screening)   ...  10214 (   0.0 sec)
nearest neighbour list constructed           ...    0.0 sec
Grid point re-assignment to atoms done       ...    0.0 sec
Grid point division into batches done        ...    0.1 sec
Reduced shell lists constructed in    0.1 sec

Total number of grid points                  ...    10214
Total number of batches                      ...      160
Average number of points per batch           ...       63
Average number of grid points per atom       ...     5107
Average number of shells per batch           ...    13.17 (77.46%)
Average number of basis functions per batch  ...    34.88 (81.12%)
Average number of large shells per batch     ...    12.12 (92.08%)
Average number of large basis fcns per batch ...    32.46 (93.06%)
Maximum spatial batch extension              ...  19.91, 25.33, 25.33 au
Average spatial batch extension              ...   4.01,  4.86,  4.77 au

Final grid set up in    0.1 sec
Final integration                            ... done (   0.0 sec)
Change in XC energy                          ...    -0.001303041
Integrated number of electrons               ...    18.000000426
Previous integrated no of electrons          ...    17.999205521
Total Energy       :         -341.52792583 Eh           -9293.44733 eV
  Last Energy change         ...   -3.1658e-09  Tolerance :   1.0000e-08
  Last MAX-Density change    ...    1.8395e-06  Tolerance :   1.0000e-07
             **** THE GBW FILE WAS UPDATED (./PH2N_PBE/input.gbw) ****
             **** DENSITY FILE WAS UPDATED (./PH2N_PBE/input.scfp) ****
             **** ENERGY FILE WAS UPDATED (./PH2N_PBE/input.en.tmp) ****
             **** THE GBW FILE WAS UPDATED (./PH2N_PBE/input.gbw) ****
             **** DENSITY FILE WAS UPDATED (./PH2N_PBE/input.scfp) ****
Total SCF time: 0 days 0 hours 0 min 1 sec 

-------------------------   --------------------
FINAL SINGLE POINT ENERGY      -341.527925832553
-------------------------   --------------------

------------------------------------------------------------------------------
                         ORCA SCF GRADIENT CALCULATION
------------------------------------------------------------------------------

Gradient of the Kohn-Sham DFT energy:
Kohn-Sham wavefunction type      ... RKS
Hartree-Fock exchange scaling    ...    0.000
Number of operators              ...    1
Number of atoms                  ...    2
Basis set dimensions             ...   43
Integral neglect threshold       ... 2.5e-11
Integral primitive cutoff        ... 2.5e-12

Nuclear repulsion gradient       ... done
One Electron Gradient            ... done
Pre-screening matrix             ... done
RI-J gradient                    ... done
Exchange-correlation gradient    ... done

------------------
CARTESIAN GRADIENT
------------------

   1   P   :    0.002726120   -0.000122881   -0.000236942
   2   H   :   -0.002726120    0.000122881    0.000236942

Difference to translation invariance:
           :    0.0000000000   -0.0000000000    0.0000000000

Norm of the cartesian gradient     ...    0.0038737511
RMS gradient                       ...    0.0015814523
MAX gradient                       ...    0.0027261204

-------
TIMINGS
-------

Total SCF gradient time            ...        0.480 sec

One electron gradient       ....       0.003 sec  (  0.6%)
Prescreening matrices       ....       0.055 sec  ( 11.5%)
RI-J Coulomb gradient       ....       0.096 sec  ( 20.1%)
XC gradient                 ....       0.152 sec  ( 31.7%)
------------------------------------------------------------------------------
                         ORCA GEOMETRY RELAXATION STEP
------------------------------------------------------------------------------

Reading the OPT-File                    .... done
Getting information on internals        .... done
Copying old internal coords+grads       .... done
Making the new internal coordinates     .... (new redundants).... done
Validating the new internal coordinates .... (new redundants).... done
Calculating the B-matrix                .... done
Calculating the G,G- and P matrices     .... done
Transforming gradient to internals      .... done
Projecting the internal gradient        .... done
Number of atoms                         ....   2
Number of internal coordinates          ....   1
Current Energy                          ....  -341.527925833 Eh
Current gradient norm                   ....     0.003873751 Eh/bohr
Maximum allowed component of the step   ....  0.300
Current trust radius                    ....  0.300
Updating the Hessian (BFGS)             .... done
Forming the augmented Hessian           .... done
Diagonalizing the augmented Hessian     .... done
Last element of RFO vector              ....  0.999767667
Lowest eigenvalues of augmented Hessian:
 -0.000058924
Length of the computed step             ....  0.021559862
The final length of the internal step   ....  0.021559862
Converting the step to cartesian space:
 Initial RMS(Int)=    0.0215598618
Transforming coordinates:
 Iter   0:  RMS(Cart)=    0.0062237960 RMS(Int)=    0.0215598618
 Iter   1:  RMS(Cart)=    0.0000000000 RMS(Int)=    0.0000000000
done
Storing new coordinates                 .... done

                                .--------------------.
          ----------------------|Geometry convergence|-------------------------
          Item                value                   Tolerance       Converged
          ---------------------------------------------------------------------
          Energy change      -0.0003532708            0.0000050000      NO
          RMS gradient        0.0027330463            0.0001000000      NO
          MAX gradient        0.0027330463            0.0003000000      NO
          RMS step            0.0215598618            0.0020000000      NO
          MAX step            0.0215598618            0.0040000000      NO
          ........................................................
          Max(Bonds)      0.0114      Max(Angles)    0.00
          Max(Dihed)        0.00      Max(Improp)    0.00
          ---------------------------------------------------------------------

The optimization has not yet converged - more geometry cycles are needed


    ---------------------------------------------------------------------------
                         Redundant Internal Coordinates
                            (Angstroem and degrees)

        Definition                    Value    dE/dq     Step     New-Value
    ----------------------------------------------------------------------------
     1. B(H   1,P   0)                1.4775 -0.002733  0.0114    1.4889   
    ----------------------------------------------------------------------------

         *************************************************************
         *                GEOMETRY OPTIMIZATION CYCLE   4            *
         *************************************************************
---------------------------------
CARTESIAN COORDINATES (ANGSTROEM)
---------------------------------
  P     -1.356072    0.534049   -0.040353
  H      0.132162    0.512947   -0.081054

----------------------------
CARTESIAN COORDINATES (A.U.)
----------------------------
  NO LB      ZA    FRAG     MASS         X           Y           Z
   0 P    15.0000    0    30.974   -2.562604    1.009206   -0.076256
   1 H     1.0000    0     1.008    0.249750    0.969329   -0.153170

--------------------------------
INTERNAL COORDINATES (ANGSTROEM)
--------------------------------
 P      0   0   0     0.000000000000     0.00000000     0.00000000
 H      1   0   0     1.488939644594     0.00000000     0.00000000

---------------------------
INTERNAL COORDINATES (A.U.)
---------------------------
 P      0   0   0     0.000000000000     0.00000000     0.00000000
 H      1   0   0     2.813688158220     0.00000000     0.00000000

 One Electron integrals                  ... done
 Pre-screening matrix                    ... done

Diagonalization of the overlap matrix:
Smallest eigenvalue                        ... 2.560e-02
Time for diagonalization                   ...    0.001 sec
Threshold for overlap eigenvalues          ... 1.000e-08
Number of eigenvalues below threshold      ... 0
Time for construction of square roots      ...    0.000 sec
Total time needed                          ...    0.001 sec

-------------------
DFT GRID GENERATION
-------------------

General Integration Accuracy     IntAcc      ...  4.340
Radial Grid Type                 RadialGrid  ... Gauss-Chebyshev
Angular Grid (max. acc.)         AngularGrid ... Lebedev-110
Angular grid pruning method      GridPruning ... 3 (G Style)
Weight generation scheme         WeightScheme... Becke
Basis function cutoff            BFCut       ...    1.0000e-11
Integration weight cutoff        WCut        ...    1.0000e-14
Grids for H and He will be reduced by one unit

# of grid points (after initial pruning)     ...   2600 (   0.0 sec)
# of grid points (after weights+screening)   ...   2577 (   0.0 sec)
nearest neighbour list constructed           ...    0.0 sec
Grid point re-assignment to atoms done       ...    0.0 sec
Grid point division into batches done        ...    0.0 sec
Reduced shell lists constructed in    0.0 sec

Total number of grid points                  ...     2577
Total number of batches                      ...       41
Average number of points per batch           ...       62
Average number of grid points per atom       ...     1288
Average number of shells per batch           ...    14.36 (84.45%)
Average number of basis functions per batch  ...    38.26 (88.98%)
Average number of large shells per batch     ...    13.52 (94.20%)
Average number of large basis fcns per batch ...    36.14 (94.46%)
Maximum spatial batch extension              ...  18.23, 32.81, 32.81 au
Average spatial batch extension              ...   6.05,  8.42,  8.63 au

Time for grid setup =    0.010 sec

--------------
SCF ITERATIONS
--------------
ITER       Energy         Delta-E        Max-DP      RMS-DP      [F,P]     Damp
               ***  Starting incremental Fock matrix formation  ***
                      *** Initiating the SOSCF procedure ***
                      *** Re-Reading the Fockian *** 
                      *** Removing any level shift *** 
ITER      Energy       Delta-E        Grad      Rot      Max-DP    RMS-DP
  0   -341.52659014 -341.5265901428  0.001360  0.001360  0.003515  0.000140
               *** Restarting incremental Fock matrix formation ***
  1   -341.52660213  -0.0000119915  0.000374  0.001689  0.003431  0.000183
  2   -341.52660262  -0.0000004888  0.000291  0.000360  0.000558  0.000041
  3   -341.52660354  -0.0000009144  0.000060  0.000178  0.000590  0.000024
  4   -341.52660358  -0.0000000420  0.000019  0.000043  0.000155  0.000008
  5   -341.52660358  -0.0000000050  0.000012  0.000041  0.000110  0.000005
  6   -341.52660359  -0.0000000018  0.000008  0.000025  0.000065  0.000003
                  ***Gradient check signals convergence***
              ***Rediagonalizing the Fockian in SOSCF/NRSCF***

               *****************************************************
               *                     SUCCESS                       *
               *           SCF CONVERGED AFTER   7 CYCLES          *
               *****************************************************

Setting up the final grid:

General Integration Accuracy     IntAcc      ...  4.670
Radial Grid Type                 RadialGrid  ... Gauss-Chebyshev
Angular Grid (max. acc.)         AngularGrid ... Lebedev-302
Angular grid pruning method      GridPruning ... 3 (G Style)
Weight generation scheme         WeightScheme... Becke
Basis function cutoff            BFCut       ...    1.0000e-11
Integration weight cutoff        WCut        ...    1.0000e-14
Grids for H and He will be reduced by one unit

# of grid points (after initial pruning)     ...  10240 (   0.0 sec)
# of grid points (after weights+screening)   ...  10214 (   0.0 sec)
nearest neighbour list constructed           ...    0.0 sec
Grid point re-assignment to atoms done       ...    0.0 sec
Grid point division into batches done        ...    0.1 sec
Reduced shell lists constructed in    0.1 sec

Total number of grid points                  ...    10214
Total number of batches                      ...      160
Average number of points per batch           ...       63
Average number of grid points per atom       ...     5107
Average number of shells per batch           ...    13.16 (77.38%)
Average number of basis functions per batch  ...    34.84 (81.03%)
Average number of large shells per batch     ...    12.11 (92.02%)
Average number of large basis fcns per batch ...    32.43 (93.07%)
Maximum spatial batch extension              ...  19.91, 25.33, 25.33 au
Average spatial batch extension              ...   3.99,  4.86,  4.74 au

Final grid set up in    0.1 sec
Final integration                            ... done (   0.0 sec)
Change in XC energy                          ...    -0.001341521
Integrated number of electrons               ...    18.000000669
Previous integrated no of electrons          ...    17.998677527
Total Energy       :         -341.52794511 Eh           -9293.44786 eV
  Last Energy change         ...    7.1981e-10  Tolerance :   1.0000e-08
  Last MAX-Density change    ...    3.6704e-06  Tolerance :   1.0000e-07
             **** THE GBW FILE WAS UPDATED (./PH2N_PBE/input.gbw) ****
             **** DENSITY FILE WAS UPDATED (./PH2N_PBE/input.scfp) ****
             **** ENERGY FILE WAS UPDATED (./PH2N_PBE/input.en.tmp) ****
             **** THE GBW FILE WAS UPDATED (./PH2N_PBE/input.gbw) ****
             **** DENSITY FILE WAS UPDATED (./PH2N_PBE/input.scfp) ****
Total SCF time: 0 days 0 hours 0 min 1 sec 

-------------------------   --------------------
FINAL SINGLE POINT ENERGY      -341.527945106148
-------------------------   --------------------

------------------------------------------------------------------------------
                         ORCA SCF GRADIENT CALCULATION
------------------------------------------------------------------------------

Gradient of the Kohn-Sham DFT energy:
Kohn-Sham wavefunction type      ... RKS
Hartree-Fock exchange scaling    ...    0.000
Number of operators              ...    1
Number of atoms                  ...    2
Basis set dimensions             ...   43
Integral neglect threshold       ... 2.5e-11
Integral primitive cutoff        ... 2.5e-12

Nuclear repulsion gradient       ... done
One Electron Gradient            ... done
Pre-screening matrix             ... done
RI-J gradient                    ... done
Exchange-correlation gradient    ... done

------------------
CARTESIAN GRADIENT
------------------

   1   P   :   -0.000302510   -0.000078292   -0.000150946
   2   H   :    0.000302510    0.000078292    0.000150946

Difference to translation invariance:
           :    0.0000000000    0.0000000000    0.0000000000

Norm of the cartesian gradient     ...    0.0004907677
RMS gradient                       ...    0.0002003551
MAX gradient                       ...    0.0003025096

-------
TIMINGS
-------

Total SCF gradient time            ...        0.476 sec

One electron gradient       ....       0.003 sec  (  0.7%)
Prescreening matrices       ....       0.054 sec  ( 11.3%)
RI-J Coulomb gradient       ....       0.096 sec  ( 20.2%)
XC gradient                 ....       0.148 sec  ( 31.1%)
------------------------------------------------------------------------------
                         ORCA GEOMETRY RELAXATION STEP
------------------------------------------------------------------------------

Reading the OPT-File                    .... done
Getting information on internals        .... done
Copying old internal coords+grads       .... done
Making the new internal coordinates     .... (new redundants).... done
Validating the new internal coordinates .... (new redundants).... done
Calculating the B-matrix                .... done
Calculating the G,G- and P matrices     .... done
Transforming gradient to internals      .... done
Projecting the internal gradient        .... done
Number of atoms                         ....   2
Number of internal coordinates          ....   1
Current Energy                          ....  -341.527945106 Eh
Current gradient norm                   ....     0.000490768 Eh/bohr
Maximum allowed component of the step   ....  0.300
Current trust radius                    ....  0.300
Updating the Hessian (BFGS)             .... done
Forming the augmented Hessian           .... done
Diagonalizing the augmented Hessian     .... done
Last element of RFO vector              ....  0.999997765
Lowest eigenvalues of augmented Hessian:
 -0.000000628
Length of the computed step             ....  0.002114088
The final length of the internal step   ....  0.002114088
Converting the step to cartesian space:
 Initial RMS(Int)=    0.0021140880
Transforming coordinates:
 Iter   0:  RMS(Cart)=    0.0006102846 RMS(Int)=    0.0021140880
 Iter   1:  RMS(Cart)=    0.0000000000 RMS(Int)=    0.0000000000
done
Storing new coordinates                 .... done

                                .--------------------.
          ----------------------|Geometry convergence|-------------------------
          Item                value                   Tolerance       Converged
          ---------------------------------------------------------------------
          Energy change      -0.0000192736            0.0000050000      NO
          RMS gradient        0.0002971303            0.0001000000      NO
          MAX gradient        0.0002971303            0.0003000000      YES
          RMS step            0.0021140880            0.0020000000      NO
          MAX step            0.0021140880            0.0040000000      YES
          ........................................................
          Max(Bonds)      0.0011      Max(Angles)    0.00
          Max(Dihed)        0.00      Max(Improp)    0.00
          ---------------------------------------------------------------------

The optimization has not yet converged - more geometry cycles are needed


    ---------------------------------------------------------------------------
                         Redundant Internal Coordinates
                            (Angstroem and degrees)

        Definition                    Value    dE/dq     Step     New-Value
    ----------------------------------------------------------------------------
     1. B(H   1,P   0)                1.4889  0.000297 -0.0011    1.4878   
    ----------------------------------------------------------------------------

         *************************************************************
         *                GEOMETRY OPTIMIZATION CYCLE   5            *
         *************************************************************
---------------------------------
CARTESIAN COORDINATES (ANGSTROEM)
---------------------------------
  P     -1.355513    0.534041   -0.040368
  H      0.131603    0.512954   -0.081039

----------------------------
CARTESIAN COORDINATES (A.U.)
----------------------------
  NO LB      ZA    FRAG     MASS         X           Y           Z
   0 P    15.0000    0    30.974   -2.561548    1.009191   -0.076285
   1 H     1.0000    0     1.008    0.248693    0.969343   -0.153142

--------------------------------
INTERNAL COORDINATES (ANGSTROEM)
--------------------------------
 P      0   0   0     0.000000000000     0.00000000     0.00000000
 H      1   0   0     1.487820917392     0.00000000     0.00000000

---------------------------
INTERNAL COORDINATES (A.U.)
---------------------------
 P      0   0   0     0.000000000000     0.00000000     0.00000000
 H      1   0   0     2.811574070191     0.00000000     0.00000000

 One Electron integrals                  ... done
 Pre-screening matrix                    ... done

Diagonalization of the overlap matrix:
Smallest eigenvalue                        ... 2.553e-02
Time for diagonalization                   ...    0.001 sec
Threshold for overlap eigenvalues          ... 1.000e-08
Number of eigenvalues below threshold      ... 0
Time for construction of square roots      ...    0.000 sec
Total time needed                          ...    0.001 sec

-------------------
DFT GRID GENERATION
-------------------

General Integration Accuracy     IntAcc      ...  4.340
Radial Grid Type                 RadialGrid  ... Gauss-Chebyshev
Angular Grid (max. acc.)         AngularGrid ... Lebedev-110
Angular grid pruning method      GridPruning ... 3 (G Style)
Weight generation scheme         WeightScheme... Becke
Basis function cutoff            BFCut       ...    1.0000e-11
Integration weight cutoff        WCut        ...    1.0000e-14
Grids for H and He will be reduced by one unit

# of grid points (after initial pruning)     ...   2600 (   0.0 sec)
# of grid points (after weights+screening)   ...   2577 (   0.0 sec)
nearest neighbour list constructed           ...    0.0 sec
Grid point re-assignment to atoms done       ...    0.0 sec
Grid point division into batches done        ...    0.0 sec
Reduced shell lists constructed in    0.0 sec

Total number of grid points                  ...     2577
Total number of batches                      ...       41
Average number of points per batch           ...       62
Average number of grid points per atom       ...     1288
Average number of shells per batch           ...    14.36 (84.45%)
Average number of basis functions per batch  ...    38.26 (88.98%)
Average number of large shells per batch     ...    13.52 (94.20%)
Average number of large basis fcns per batch ...    36.14 (94.46%)
Maximum spatial batch extension              ...  18.23, 32.81, 32.81 au
Average spatial batch extension              ...   6.06,  8.47,  8.66 au

Time for grid setup =    0.011 sec

--------------
SCF ITERATIONS
--------------
ITER       Energy         Delta-E        Max-DP      RMS-DP      [F,P]     Damp
               ***  Starting incremental Fock matrix formation  ***
                      *** Initiating the SOSCF procedure ***
                      *** Re-Reading the Fockian *** 
                      *** Removing any level shift *** 
ITER      Energy       Delta-E        Grad      Rot      Max-DP    RMS-DP
  0   -341.52660795 -341.5266079474  0.000132  0.000132  0.000345  0.000014
               *** Restarting incremental Fock matrix formation ***
  1   -341.52660806  -0.0000001139  0.000036  0.000164  0.000332  0.000018
  2   -341.52660806  -0.0000000032  0.000028  0.000035  0.000056  0.000004
  3   -341.52660807  -0.0000000103  0.000006  0.000017  0.000057  0.000002
                  ***Gradient check signals convergence***
              ***Rediagonalizing the Fockian in SOSCF/NRSCF***

               *****************************************************
               *                     SUCCESS                       *
               *           SCF CONVERGED AFTER   4 CYCLES          *
               *****************************************************

Setting up the final grid:

General Integration Accuracy     IntAcc      ...  4.670
Radial Grid Type                 RadialGrid  ... Gauss-Chebyshev
Angular Grid (max. acc.)         AngularGrid ... Lebedev-302
Angular grid pruning method      GridPruning ... 3 (G Style)
Weight generation scheme         WeightScheme... Becke
Basis function cutoff            BFCut       ...    1.0000e-11
Integration weight cutoff        WCut        ...    1.0000e-14
Grids for H and He will be reduced by one unit

# of grid points (after initial pruning)     ...  10240 (   0.0 sec)
# of grid points (after weights+screening)   ...  10214 (   0.0 sec)
nearest neighbour list constructed           ...    0.0 sec
Grid point re-assignment to atoms done       ...    0.0 sec
Grid point division into batches done        ...    0.0 sec
Reduced shell lists constructed in    0.1 sec

Total number of grid points                  ...    10214
Total number of batches                      ...      160
Average number of points per batch           ...       63
Average number of grid points per atom       ...     5107
Average number of shells per batch           ...    13.16 (77.38%)
Average number of basis functions per batch  ...    34.82 (80.98%)
Average number of large shells per batch     ...    12.12 (92.12%)
Average number of large basis fcns per batch ...    32.47 (93.24%)
Maximum spatial batch extension              ...  19.91, 25.33, 25.33 au
Average spatial batch extension              ...   4.01,  4.87,  4.75 au

Final grid set up in    0.1 sec
Final integration                            ... done (   0.0 sec)
Change in XC energy                          ...    -0.001337994
Integrated number of electrons               ...    18.000000647
Previous integrated no of electrons          ...    17.998728240
Total Energy       :         -341.52794607 Eh           -9293.44788 eV
  Last Energy change         ...   -2.8753e-09  Tolerance :   1.0000e-08
  Last MAX-Density change    ...    1.4476e-05  Tolerance :   1.0000e-07
             **** THE GBW FILE WAS UPDATED (./PH2N_PBE/input.gbw) ****
             **** DENSITY FILE WAS UPDATED (./PH2N_PBE/input.scfp) ****
             **** ENERGY FILE WAS UPDATED (./PH2N_PBE/input.en.tmp) ****
             **** THE GBW FILE WAS UPDATED (./PH2N_PBE/input.gbw) ****
             **** DENSITY FILE WAS UPDATED (./PH2N_PBE/input.scfp) ****
Total SCF time: 0 days 0 hours 0 min 0 sec 

-------------------------   --------------------
FINAL SINGLE POINT ENERGY      -341.527946071686
-------------------------   --------------------

------------------------------------------------------------------------------
                         ORCA SCF GRADIENT CALCULATION
------------------------------------------------------------------------------

Gradient of the Kohn-Sham DFT energy:
Kohn-Sham wavefunction type      ... RKS
Hartree-Fock exchange scaling    ...    0.000
Number of operators              ...    1
Number of atoms                  ...    2
Basis set dimensions             ...   43
Integral neglect threshold       ... 2.5e-11
Integral primitive cutoff        ... 2.5e-12

Nuclear repulsion gradient       ... done
One Electron Gradient            ... done
Pre-screening matrix             ... done
RI-J gradient                    ... done
Exchange-correlation gradient    ... done

------------------
[...]
nearest neighbour list constructed           ...    0.0 sec
Grid point re-assignment to atoms done       ...    0.0 sec
Grid point division into batches done        ...    0.1 sec
Reduced shell lists constructed in    0.1 sec

Total number of grid points                  ...    10214
Total number of batches                      ...      160
Average number of points per batch           ...       63
Average number of grid points per atom       ...     5107
Average number of shells per batch           ...    13.16 (77.38%)
Average number of basis functions per batch  ...    34.83 (81.01%)
Average number of large shells per batch     ...    12.12 (92.16%)
Average number of large basis fcns per batch ...    32.46 (93.19%)
Maximum spatial batch extension              ...  19.91, 25.33, 25.33 au
Average spatial batch extension              ...   4.00,  4.86,  4.75 au

Final grid set up in    0.1 sec
Final integration                            ... done (   0.0 sec)
Change in XC energy                          ...    -0.001337923
Integrated number of electrons               ...    18.000000647
Previous integrated no of electrons          ...    17.998729409

----------------
TOTAL SCF ENERGY
----------------

Total Energy       :         -341.52794609 Eh           -9293.44788 eV

Components:
Nuclear Repulsion  :            5.33518132 Eh             145.17766 eV
Electronic Energy  :         -346.86312741 Eh           -9438.62555 eV
One Electron Energy:         -491.87308812 Eh          -13384.54719 eV
Two Electron Energy:          145.00996071 Eh            3945.92164 eV

Virial components:
Potential Energy   :         -682.66722142 Eh          -18576.31950 eV
Kinetic Energy     :          341.13927533 Eh            9282.87161 eV
Virial Ratio       :            2.00113933


DFT components:
N(Alpha)           :        9.000000323412 electrons
N(Beta)            :        9.000000323412 electrons
N(Total)           :       18.000000646825 electrons
E(X)               :      -23.129977746838 Eh       
E(C)               :       -0.640015457844 Eh       
E(XC)              :      -23.769993204682 Eh       
DFET-embed. en.    :        0.000000000000 Eh       

---------------
SCF CONVERGENCE
---------------

  Last Energy change         ...   -1.6524e-10  Tolerance :   1.0000e-08
  Last MAX-Density change    ...    1.8800e-05  Tolerance :   1.0000e-07
  Last RMS-Density change    ...    9.0880e-07  Tolerance :   5.0000e-09
  Last Orbital Gradient      ...    1.8561e-06  Tolerance :   1.0000e-05
  Last Orbital Rotation      ...    8.3793e-06  Tolerance :   1.0000e-05

             **** THE GBW FILE WAS UPDATED (./PH2N_PBE/input.gbw) ****
             **** DENSITY FILE WAS UPDATED (./PH2N_PBE/input.scfp) ****
             **** ENERGY FILE WAS UPDATED (./PH2N_PBE/input.en.tmp) ****
             **** THE GBW FILE WAS UPDATED (./PH2N_PBE/input.gbw) ****
             **** DENSITY FILE WAS UPDATED (./PH2N_PBE/input.scfp) ****
----------------
ORBITAL ENERGIES
----------------

  NO   OCC          E(Eh)            E(eV) 
   0   2.0000     -75.751790     -2061.3110 
   1   2.0000      -5.749614      -156.4549 
   2   2.0000      -3.966288      -107.9282 
   3   2.0000      -3.964278      -107.8735 
   4   2.0000      -3.964277      -107.8735 
   5   2.0000       0.012357         0.3363 
   6   2.0000       0.213930         5.8213 
   7   2.0000       0.330126         8.9832 
   8   2.0000       0.330138         8.9835 
   9   0.0000       0.435443        11.8490 
  10   0.0000       0.578302        15.7364 
  11   0.0000       0.660658        17.9774 
  12   0.0000       0.660691        17.9783 
  13   0.0000       0.688433        18.7332 
  14   0.0000       0.748938        20.3796 
  15   0.0000       0.748972        20.3806 
  16   0.0000       0.775759        21.1095 
  17   0.0000       0.777908        21.1680 
  18   0.0000       0.861079        23.4311 
  19   0.0000       0.985146        26.8072 
  20   0.0000       1.659813        45.1658 
  21   0.0000       1.659828        45.1662 
  22   0.0000       1.665473        45.3198 
  23   0.0000       1.688835        45.9555 
  24   0.0000       1.688855        45.9561 
  25   0.0000       1.699526        46.2465 
  26   0.0000       1.699866        46.2557 
  27   0.0000       1.823381        49.6167 
  28   0.0000       1.826681        49.7065 
  29   0.0000       1.839931        50.0671 
  30   0.0000       1.839967        50.0681 
  31   0.0000       1.922444        52.3124 
  32   0.0000       1.944282        52.9066 
  33   0.0000       1.944321        52.9077 
  34   0.0000       2.029287        55.2197 
  35   0.0000       2.387473        64.9664 
  36   0.0000       2.387526        64.9679 
  37   0.0000       2.788195        75.8706 
  38   0.0000       3.033071        82.5341 
  39   0.0000       7.610573       207.0942 
  40   0.0000       7.610591       207.0947 
  41   0.0000       7.655577       208.3188 
  42   0.0000      13.540186       368.4472 

                    ********************************
                    * MULLIKEN POPULATION ANALYSIS *
                    ********************************

-----------------------
MULLIKEN ATOMIC CHARGES
-----------------------
   0 P :   -1.783090
   1 H :   -0.216910
Sum of atomic charges:   -2.0000000

--------------------------------
MULLIKEN REDUCED ORBITAL CHARGES
--------------------------------
  0 P s       :     5.869841  s :     5.869841
      pz      :     3.992396  p :    10.880681
      px      :     2.895178
      py      :     3.993107
      dz2     :     0.006597  d :     0.028462
      dxz     :     0.001036
      dyz     :     0.000001
      dx2y2   :     0.019830
      dxy     :     0.000998
      f0      :     0.000102  f :     0.004106
      f+1     :     0.001353
      f-1     :     0.000011
      f+2     :     0.000148
      f-2     :     0.000001
      f+3     :     0.002263
      f-3     :     0.000229
  1 H s       :     1.200739  s :     1.200739
      pz      :     0.005403  p :     0.016171
      px      :     0.005360
      py      :     0.005408


                     *******************************
                     * LOEWDIN POPULATION ANALYSIS *
                     *******************************

----------------------
LOEWDIN ATOMIC CHARGES
----------------------
   0 P :   -1.849563
   1 H :   -0.150437

-------------------------------
LOEWDIN REDUCED ORBITAL CHARGES
-------------------------------
  0 P s       :     5.724078  s :     5.724078
      pz      :     3.984364  p :    11.053426
      px      :     3.084159
      py      :     3.984903
      dz2     :     0.015135  d :     0.062113
      dxz     :     0.000785
      dyz     :     0.000001
      dx2y2   :     0.045502
      dxy     :     0.000689
      f0      :     0.000049  f :     0.009946
      f+1     :     0.003643
      f-1     :     0.000003
      f+2     :     0.000069
      f-2     :     0.000000
      f+3     :     0.006099
      f-3     :     0.000083
  1 H s       :     1.095849  s :     1.095849
      pz      :     0.014180  p :     0.054588
      px      :     0.026236
      py      :     0.014172


                      *****************************
                      * MAYER POPULATION ANALYSIS *
                      *****************************

  NA   - Mulliken gross atomic population
  ZA   - Total nuclear charge
  QA   - Mulliken gross atomic charge
  VA   - Mayer's total valence
  BVA  - Mayer's bonded valence
  FA   - Mayer's free valence

  ATOM       NA         ZA         QA         VA         BVA        FA
  0 P     16.7831    15.0000    -1.7831     0.9472     0.9472     0.0000
  1 H      1.2169     1.0000    -0.2169     0.9472     0.9472     0.0000

  Mayer bond orders larger than 0.100000
B(  0-P ,  1-H ) :   0.9472 

-------
TIMINGS
-------

Total SCF time: 0 days 0 hours 0 min 0 sec 

Total time                  ....       0.570 sec
Sum of individual times     ....       0.444 sec  ( 77.9%)

Fock matrix formation       ....       0.308 sec  ( 54.1%)
  Split-RI-J                ....       0.229 sec  ( 74.2% of F)
  XC integration            ....       0.068 sec  ( 22.0% of F)
    Basis function eval.    ....       0.022 sec  ( 31.8% of XC)
    Density eval.           ....       0.012 sec  ( 17.7% of XC)
    XC-Functional eval.     ....       0.016 sec  ( 23.3% of XC)
    XC-Potential eval.      ....       0.013 sec  ( 19.7% of XC)
Diagonalization             ....       0.000 sec  (  0.1%)
Density matrix formation    ....       0.000 sec  (  0.0%)
Population analysis         ....       0.001 sec  (  0.1%)
Initial guess               ....       0.001 sec  (  0.1%)
Orbital Transformation      ....       0.000 sec  (  0.0%)
Orbital Orthonormalization  ....       0.000 sec  (  0.0%)
DIIS solution               ....       0.000 sec  (  0.0%)
SOSCF solution              ....       0.039 sec  (  6.9%)
Grid generation             ....       0.094 sec  ( 16.5%)

-------------------------   --------------------
FINAL SINGLE POINT ENERGY      -341.527946094445
-------------------------   --------------------

                                *** OPTIMIZATION RUN DONE ***

                            ***************************************
                            *     ORCA property calculations      *
                            ***************************************

                                    ---------------------
                                    Active property flags
                                    ---------------------
   (+) Dipole Moment


------------------------------------------------------------------------------
                       ORCA ELECTRIC PROPERTIES CALCULATION
------------------------------------------------------------------------------

Dipole Moment Calculation                       ... on
Quadrupole Moment Calculation                   ... off
Polarizability Calculation                      ... off
GBWName                                         ... ./PH2N_PBE/input.gbw
Electron density file                           ... ./PH2N_PBE/input.scfp
The origin for moment calculation is the CENTER OF MASS  = (-2.472953,  1.007935 -0.078708)

-------------
DIPOLE MOMENT
-------------
                                X             Y             Z
Electronic contribution:     -1.50566       0.02022       0.03901
Nuclear contribution   :      1.39306      -0.01975      -0.03810
                        -----------------------------------------
Total Dipole Moment    :     -0.11260       0.00047       0.00091
                        -----------------------------------------
Magnitude (a.u.)       :      0.11261
Magnitude (Debye)      :      0.28623



--------------------
Rotational spectrum 
--------------------
 
Rotational constants in cm-1:     0.000000     7.801144     7.801144 
Rotational constants in MHz :     0.000000 233872.406165 233872.406165 

 Dipole components along the rotational axes: 
x,y,z [a.u.] :     0.112583     0.001622    -0.001831 
x,y,z [Debye]:     0.286163     0.004122    -0.004653 

 

----------------------------------------------------------------------------
                           ORCA NUMERICAL FREQUENCIES
----------------------------------------------------------------------------

Number of atoms                ... 2
Central differences            ... used
Number of displacements        ... 12
Numerical increment            ... 5.000e-03 bohr
IR-spectrum generation         ... on
Raman-spectrum generation      ... off
Surface Crossing Hessian       ... off

The output will be reduced. Please look at the following files:
SCF program output             ... >./PH2N_PBE/input.lastscf
Integral program output        ... >./PH2N_PBE/input.lastint
Gradient program output        ... >./PH2N_PBE/input.lastgrad
Dipole moment program output   ... >./PH2N_PBE/input.lastmom
AutoCI program output          ... >./PH2N_PBE/input.lastautoci


         <<< Energy and Gradient at the input geometry >>>

        <<< Energy and Gradient at displaced geometries >>>
             <<<Displacing   1/coordinate 1 (+)>>>
             <<<Displacing   1/coordinate 1 (-)>>>
             <<<Displacing   1/coordinate 2 (+)>>>
             <<<Displacing   1/coordinate 2 (-)>>>
             <<<Displacing   1/coordinate 3 (+)>>>
             <<<Displacing   1/coordinate 3 (-)>>>
             <<<Displacing   2/coordinate 1 (+)>>>
             <<<Displacing   2/coordinate 1 (-)>>>
             <<<Displacing   2/coordinate 2 (+)>>>
             <<<Displacing   2/coordinate 2 (-)>>>
             <<<Displacing   2/coordinate 3 (+)>>>
             <<<Displacing   2/coordinate 3 (-)>>>

-----------------------
VIBRATIONAL FREQUENCIES
-----------------------

Scaling factor for frequencies =  1.000000000 (already applied!)

   0:         0.00 cm**-1
   1:         0.00 cm**-1
   2:         0.00 cm**-1
   3:         0.00 cm**-1
   4:         0.00 cm**-1
   5:      1925.53 cm**-1


------------
NORMAL MODES
------------

These modes are the cartesian displacements weighted by the diagonal matrix
M(i,i)=1/sqrt(m[i]) where m[i] is the mass of the displaced atom
Thus, these vectors are normalized but *not* orthogonal

                  0          1          2          3          4          5    
      0       0.000000   0.000000   0.000000   0.000000   0.000000   0.032511
      1       0.000000   0.000000   0.000000   0.000000   0.000000  -0.000461
      2       0.000000   0.000000   0.000000   0.000000   0.000000  -0.000889
      3       0.000000   0.000000   0.000000   0.000000   0.000000  -0.998997
      4       0.000000   0.000000   0.000000   0.000000   0.000000   0.014165
      5       0.000000   0.000000   0.000000   0.000000   0.000000   0.027321


-----------
IR SPECTRUM  
-----------

 Mode    freq (cm**-1)   T**2         TX         TY         TZ
-------------------------------------------------------------------
   5:      1925.53  788.420064  ( 28.057098  -0.508342  -0.980271)

The first frequency considered to be a vibration is 5
The total number of vibrations considered is 1


--------------------------
THERMOCHEMISTRY AT 298.15K
--------------------------

Temperature         ... 298.15 K
Pressure            ... 1.00 atm
Total Mass          ... 31.98 AMU
The molecule is recognized as being linear

Throughout the following assumptions are being made:
  (1) The electronic state is orbitally nondegenerate
  (2) There are no thermally accessible electronically excited states
  (3) Hindered rotations indicated by low frequency modes are not
      treated as such but are treated as vibrations and this may
      cause some error
  (4) All equations used are the standard statistical mechanics
      equations for an ideal gas
  (5) All vibrations are strictly harmonic

freq.    1925.53  E(vib)   ...       0.00 

------------
INNER ENERGY
------------

The inner energy is: U= E(el) + E(ZPE) + E(vib) + E(rot) + E(trans)
    E(el)   - is the total energy from the electronic structure calculation
              = E(kin-el) + E(nuc-el) + E(el-el) + E(nuc-nuc)
    E(ZPE)  - the the zero temperature vibrational energy from the frequency calculation
    E(vib)  - the the finite temperature correction to E(ZPE) due to population
              of excited vibrational states
    E(rot)  - is the rotational thermal energy
    E(trans)- is the translational thermal energy

Summary of contributions to the inner energy U:
Electronic energy                ...   -341.52794609 Eh
Zero point energy                ...      0.00438668 Eh       2.75 kcal/mol
Thermal vibrational correction   ...      0.00000081 Eh       0.00 kcal/mol
Thermal rotational correction    ...      0.00094418 Eh       0.59 kcal/mol
Thermal translational correction ...      0.00141627 Eh       0.89 kcal/mol
-----------------------------------------------------------------------
Total thermal energy                   -341.52119815 Eh


Summary of corrections to the electronic energy:
(perhaps to be used in another calculation)
Total thermal correction                  0.00236126 Eh       1.48 kcal/mol
Non-thermal (ZPE) correction              0.00438668 Eh       2.75 kcal/mol
-----------------------------------------------------------------------
Total correction                          0.00674794 Eh       4.23 kcal/mol


--------
ENTHALPY
--------

The enthalpy is H = U + kB*T
                kB is Boltzmann's constant
Total free energy                 ...   -341.52119815 Eh 
Thermal Enthalpy correction       ...      0.00094421 Eh       0.59 kcal/mol
-----------------------------------------------------------------------
Total Enthalpy                    ...   -341.52025394 Eh


Note: Rotational entropy computed according to Herzberg 
Infrared and Raman Spectra, Chapter V,1, Van Nostrand Reinhold, 1945 
Point Group:  Cinfv, Symmetry Number:   1  
Rotational constants in cm-1:     0.000000     7.801144     7.801144 

Vibrational entropy computed according to the QRRHO of S. Grimme
Chem.Eur.J. 2012 18 9955


-------
ENTROPY
-------

The entropy contributions are T*S = T*(S(el)+S(vib)+S(rot)+S(trans))
     S(el)   - electronic entropy
     S(vib)  - vibrational entropy
     S(rot)  - rotational entropy
     S(trans)- translational entropy
The entropies will be listed as mutliplied by the temperature to get
units of energy

Electronic entropy                ...      0.00000000 Eh      0.00 kcal/mol
Vibrational entropy               ...      0.00000090 Eh      0.00 kcal/mol
Rotational entropy                ...      0.00404066 Eh      2.54 kcal/mol
Translational entropy             ...      0.01725670 Eh     10.83 kcal/mol
-----------------------------------------------------------------------
Final entropy term                ...      0.02129825 Eh     13.36 kcal/mol

In case the symmetry of your molecule has not been determined correctly
or in case you have a reason to use a different symmetry number we print 
out the resulting rotational entropy values for sn=1,12 :
 --------------------------------------------------------
|  sn= 1 | S(rot)=      -0.01160101 Eh     -7.28 kcal/mol|
|  sn= 2 | S(rot)=      -0.01225547 Eh     -7.69 kcal/mol|
|  sn= 3 | S(rot)=      -0.01263830 Eh     -7.93 kcal/mol|
|  sn= 4 | S(rot)=      -0.01290993 Eh     -8.10 kcal/mol|
|  sn= 5 | S(rot)=      -0.01312061 Eh     -8.23 kcal/mol|
|  sn= 6 | S(rot)=      -0.01329276 Eh     -8.34 kcal/mol|
|  sn= 7 | S(rot)=      -0.01343830 Eh     -8.43 kcal/mol|
|  sn= 8 | S(rot)=      -0.01356438 Eh     -8.51 kcal/mol|
|  sn= 9 | S(rot)=      -0.01367559 Eh     -8.58 kcal/mol|
|  sn=10 | S(rot)=      -0.01377507 Eh     -8.64 kcal/mol|
|  sn=11 | S(rot)=      -0.01386506 Eh     -8.70 kcal/mol|
|  sn=12 | S(rot)=      -0.01394721 Eh     -8.75 kcal/mol|
 --------------------------------------------------------


-------------------
GIBBS FREE ENERGY
-------------------

The Gibbs free energy is G = H - T*S

Total enthalpy                    ...   -341.52025394 Eh 
Total entropy correction          ...     -0.02129825 Eh    -13.36 kcal/mol
-----------------------------------------------------------------------
Final Gibbs free energy         ...   -341.54155219 Eh

For completeness - the Gibbs free energy minus the electronic energy
G-E(el)                           ...     -0.01360610 Eh     -8.54 kcal/mol


Total Time for Numerical Frequencies  :        42.994 sec

Timings for individual modules:

Sum of individual times         ...       12.926 sec (=   0.215 min)
GTO integral calculation        ...        1.154 sec (=   0.019 min)   8.9 %
SCF iterations                  ...        8.645 sec (=   0.144 min)  66.9 %
SCF Gradient evaluation         ...        2.981 sec (=   0.050 min)  23.1 %
Geometry relaxation             ...        0.146 sec (=   0.002 min)   1.1 %
                             ****ORCA TERMINATED NORMALLY****
TOTAL RUN TIME: 0 days 0 hours 0 minutes 54 seconds 981 msec
