
                                 *****************
                                 * O   R   C   A *
                                 *****************

                                            #,                                       
                                            ###                                      
                                            ####                                     
                                            #####                                    
                                            ######                                   
                                           ########,                                 
                                     ,,################,,,,,                         
                               ,,#################################,,                 
                          ,,##########################################,,             
                       ,#########################################, ''#####,          
                    ,#############################################,,   '####,        
                  ,##################################################,,,,####,       
                ,###########''''           ''''###############################       
              ,#####''   ,,,,##########,,,,          '''####'''          '####       
            ,##' ,,,,###########################,,,                        '##       
           ' ,,###''''                  '''############,,,                           
         ,,##''                                '''############,,,,        ,,,,,,###''
      ,#''                                            '''#######################'''  
     '                                                          ''''####''''         
             ,#######,   #######,   ,#######,      ##                                
            ,#'     '#,  ##    ##  ,#'     '#,    #''#        ######   ,####,        
            ##       ##  ##   ,#'  ##            #'  '#       #        #'  '#        
            ##       ##  #######   ##           ,######,      #####,   #    #        
            '#,     ,#'  ##    ##  '#,     ,#' ,#      #,         ##   #,  ,#        
             '#######'   ##     ##  '#######'  #'      '#     #####' # '####'        



                  #######################################################
                  #                        -***-                        #
                  #          Department of theory and spectroscopy      #
                  #    Directorship and core code : Frank Neese         #
                  #        Max Planck Institute fuer Kohlenforschung    #
                  #                Kaiser Wilhelm Platz 1               #
                  #                 D-45470 Muelheim/Ruhr               #
                  #                      Germany                        #
                  #                                                     #
                  #                  All rights reserved                #
                  #                        -***-                        #
                  #######################################################


                         Program Version 5.0.3 -  RELEASE  -


 With contributions from (in alphabetic order):
   Daniel Aravena         : Magnetic Suceptibility
   Michael Atanasov       : Ab Initio Ligand Field Theory (pilot matlab implementation)
   Alexander A. Auer      : GIAO ZORA, VPT2 properties, NMR spectrum
   Ute Becker             : Parallelization
   Giovanni Bistoni       : ED, misc. LED, open-shell LED, HFLD
   Martin Brehm           : Molecular dynamics
   Dmytro Bykov           : SCF Hessian
   Vijay G. Chilkuri      : MRCI spin determinant printing, contributions to CSF-ICE
   Dipayan Datta          : RHF DLPNO-CCSD density
   Achintya Kumar Dutta   : EOM-CC, STEOM-CC
   Dmitry Ganyushin       : Spin-Orbit,Spin-Spin,Magnetic field MRCI
   Miquel Garcia          : C-PCM and meta-GGA Hessian, CC/C-PCM, Gaussian charge scheme
   Yang Guo               : DLPNO-NEVPT2, F12-NEVPT2, CIM, IAO-localization
   Andreas Hansen         : Spin unrestricted coupled pair/coupled cluster methods
   Benjamin Helmich-Paris : MC-RPA, TRAH-SCF, COSX integrals
   Lee Huntington         : MR-EOM, pCC
   Robert Izsak           : Overlap fitted RIJCOSX, COSX-SCS-MP3, EOM
   Marcus Kettner         : VPT2
   Christian Kollmar      : KDIIS, OOCD, Brueckner-CCSD(T), CCSD density, CASPT2, CASPT2-K
   Simone Kossmann        : Meta GGA functionals, TD-DFT gradient, OOMP2, MP2 Hessian
   Martin Krupicka        : Initial AUTO-CI
   Lucas Lang             : DCDCAS
   Marvin Lechner         : AUTO-CI (C++ implementation), FIC-MRCC
   Dagmar Lenk            : GEPOL surface, SMD
   Dimitrios Liakos       : Extrapolation schemes; Compound Job, initial MDCI parallelization
   Dimitrios Manganas     : Further ROCIS development; embedding schemes
   Dimitrios Pantazis     : SARC Basis sets
   Anastasios Papadopoulos: AUTO-CI, single reference methods and gradients
   Taras Petrenko         : DFT Hessian,TD-DFT gradient, ASA, ECA, R-Raman, ABS, FL, XAS/XES, NRVS
   Peter Pinski           : DLPNO-MP2, DLPNO-MP2 Gradient
   Christoph Reimann      : Effective Core Potentials
   Marius Retegan         : Local ZFS, SOC
   Christoph Riplinger    : Optimizer, TS searches, QM/MM, DLPNO-CCSD(T), (RO)-DLPNO pert. Triples
   Tobias Risthaus        : Range-separated hybrids, TD-DFT gradient, RPA, STAB
   Michael Roemelt        : Original ROCIS implementation
   Masaaki Saitow         : Open-shell DLPNO-CCSD energy and density
   Barbara Sandhoefer     : DKH picture change effects
   Avijit Sen             : IP-ROCIS
   Kantharuban Sivalingam : CASSCF convergence, NEVPT2, FIC-MRCI
   Bernardo de Souza      : ESD, SOC TD-DFT
   Georgi Stoychev        : AutoAux, RI-MP2 NMR, DLPNO-MP2 response
   Willem Van den Heuvel  : Paramagnetic NMR
   Boris Wezisla          : Elementary symmetry handling
   Frank Wennmohs         : Technical directorship


 We gratefully acknowledge several colleagues who have allowed us to
 interface, adapt or use parts of their codes:
   Stefan Grimme, W. Hujo, H. Kruse, P. Pracht,  : VdW corrections, initial TS optimization,
                  C. Bannwarth, S. Ehlert          DFT functionals, gCP, sTDA/sTD-DF
   Ed Valeev, F. Pavosevic, A. Kumar             : LibInt (2-el integral package), F12 methods
   Garnet Chan, S. Sharma, J. Yang, R. Olivares  : DMRG
   Ulf Ekstrom                                   : XCFun DFT Library
   Mihaly Kallay                                 : mrcc  (arbitrary order and MRCC methods)
   Jiri Pittner, Ondrej Demel                    : Mk-CCSD
   Frank Weinhold                                : gennbo (NPA and NBO analysis)
   Christopher J. Cramer and Donald G. Truhlar   : smd solvation model
   Lars Goerigk                                  : TD-DFT with DH, B97 family of functionals
   V. Asgeirsson, H. Jonsson                     : NEB implementation
   FAccTs GmbH                                   : IRC, NEB, NEB-TS, DLPNO-Multilevel, CI-OPT
                                                   MM, QMMM, 2- and 3-layer-ONIOM, Crystal-QMMM,
                                                   LR-CPCM, SF, NACMEs, symmetry and pop. for TD-DFT,
                                                   nearIR, NL-DFT gradient (VV10), updates on ESD,
                                                   ML-optimized integration grids
   S Lehtola, MJT Oliveira, MAL Marques          : LibXC Library
   Liviu Ungur et al                             : ANISO software


 Your calculation uses the libint2 library for the computation of 2-el integrals
 For citations please refer to: http://libint.valeyev.net

 Your ORCA version has been built with support for libXC version: 5.1.0
 For citations please refer to: https://tddft.org/programs/libxc/

 This ORCA versions uses:
   CBLAS   interface :  Fast vector & matrix operations
   LAPACKE interface :  Fast linear algebra routines
   SCALAPACK package :  Parallel linear algebra routines
   Shared memory     :  Shared parallel matrices
   BLAS/LAPACK       :  OpenBLAS 0.3.15  USE64BITINT DYNAMIC_ARCH NO_AFFINITY Excavator SINGLE_THREADED
        Core in use  :  Excavator
   Copyright (c) 2011-2014, The OpenBLAS Project


SCAN-COORDS
================================================================================

----- Orbital basis set information -----
Your calculation utilizes the basis: def2-TZVP
   F. Weigend and R. Ahlrichs, Phys. Chem. Chem. Phys. 7, 3297 (2005).

----- AuxJ basis set information -----
Your calculation utilizes the auxiliary basis: def2/J
   F. Weigend, Phys. Chem. Chem. Phys. 8, 1057 (2006).

================================================================================
                                        WARNINGS
                       Please study these warnings very carefully!
================================================================================

WARNING: Gradients needed for Numerical Frequencies
  ===> : Setting RunTyp to EnGrad

INFO   : the flag for use of the SHARK integral package has been found!

================================================================================
                                       INPUT FILE
================================================================================
NAME = input.inp
|  1> ! PBE0 NumFreq
|  2> %method
|  3>         method DFT
|  4>         runtyp Energy
|  5> end
|  6> %basis
|  7>         basis "def2-TZVP"
|  8> end
|  9> %coords
| 10>         CTyp xyz
| 11>         Charge 0
| 12>         Mult 1
| 13>         Units Angs
| 14>         coords
| 15> 	#90
| 16> 	N     -1.011290    0.960957    0.000001
| 17> 	C     -1.007970    0.960795   -1.157147
| 18> 	H     -2.068270    1.013340    0.000003
| 19> 	end
| 20> end
| 21> %eprnmr
| 22>         NMRShielding 1
| 23>         Nuclei = all N {shift}
| 24>         Nuclei = all C {shift}
| 25>         Nuclei = all H {shift}
| 26> end
| 27> 
| 28>                          ****END OF INPUT****
================================================================================

                     *******************************
                     * Energy+Gradient Calculation *
                     *******************************

---------------------------------
CARTESIAN COORDINATES (ANGSTROEM)
---------------------------------
  N     -1.011290    0.960957    0.000001
  C     -1.007970    0.960795   -1.157147
  H     -2.068270    1.013340    0.000003

----------------------------
CARTESIAN COORDINATES (A.U.)
----------------------------
  NO LB      ZA    FRAG     MASS         X           Y           Z
   0 N     7.0000    0    14.007   -1.911061    1.815946    0.000002
   1 C     6.0000    0    12.011   -1.904787    1.815639   -2.186691
   2 H     1.0000    0     1.008   -3.908464    1.914935    0.000006

--------------------------------
INTERNAL COORDINATES (ANGSTROEM)
--------------------------------
 N      0   0   0     0.000000000000     0.00000000     0.00000000
 C      1   0   0     1.157152774074     0.00000000     0.00000000
 H      1   2   0     1.058277231680    90.16469201     0.00000000

---------------------------
INTERNAL COORDINATES (A.U.)
---------------------------
 N      0   0   0     0.000000000000     0.00000000     0.00000000
 C      1   0   0     2.186701838108     0.00000000     0.00000000
 H      1   2   0     1.999854141640    90.16469201     0.00000000

---------------------
BASIS SET INFORMATION
---------------------
There are 3 groups of distinct atoms

 Group   1 Type N   : 11s6p2d1f contracted to 5s3p2d1f pattern {62111/411/11/1}
 Group   2 Type C   : 11s6p2d1f contracted to 5s3p2d1f pattern {62111/411/11/1}
 Group   3 Type H   : 5s1p contracted to 3s1p pattern {311/1}

Atom   0N    basis set group =>   1
Atom   1C    basis set group =>   2
Atom   2H    basis set group =>   3
---------------------------------
AUXILIARY/J BASIS SET INFORMATION
---------------------------------
There are 3 groups of distinct atoms

 Group   1 Type N   : 12s5p4d2f1g contracted to 6s4p3d1f1g pattern {711111/2111/211/2/1}
 Group   2 Type C   : 12s5p4d2f1g contracted to 6s4p3d1f1g pattern {711111/2111/211/2/1}
 Group   3 Type H   : 5s2p1d contracted to 3s1p1d pattern {311/2/1}

Atom   0N    basis set group =>   1
Atom   1C    basis set group =>   2
Atom   2H    basis set group =>   3
------------------------------------------------------------------------------
                           ORCA GTO INTEGRAL CALCULATION
                           -- RI-GTO INTEGRALS CHOSEN --
------------------------------------------------------------------------------
------------------------------------------------------------------------------
                   ___                                                        
                  /   \      - P O W E R E D   B Y -                         
                 /     \                                                     
                 |  |  |   _    _      __       _____    __    __             
                 |  |  |  | |  | |    /  \     |  _  \  |  |  /  |          
                  \  \/   | |  | |   /    \    | | | |  |  | /  /          
                 / \  \   | |__| |  /  /\  \   | |_| |  |  |/  /          
                |  |  |   |  __  | /  /__\  \  |    /   |      \           
                |  |  |   | |  | | |   __   |  |    \   |  |\   \          
                \     /   | |  | | |  |  |  |  | |\  \  |  | \   \       
                 \___/    |_|  |_| |__|  |__|  |_| \__\ |__|  \__/        
                                                                              
                      - O R C A' S   B I G   F R I E N D -                    
                                      &                                       
                       - I N T E G R A L  F E E D E R -                       
                                                                              
 v1 FN, 2020, v2 2021                                                         
------------------------------------------------------------------------------


Reading SHARK input file input.SHARKINP.tmp ... ok
----------------------
SHARK INTEGRAL PACKAGE
----------------------

Number of atoms                             ...      3
Number of basis functions                   ...     68
Number of shells                            ...     26
Maximum angular momentum                    ...      3
Integral batch strategy                     ... SHARK/LIBINT Hybrid
RI-J (if used) integral strategy            ... SPLIT-RIJ (Revised 2003 algorithm where possible)
Printlevel                                  ...      1
Contraction scheme used                     ... SEGMENTED contraction
Coulomb Range Separation                    ... NOT USED
Exchange Range Separation                   ... NOT USED
Finite Nucleus Model                        ... NOT USED
Auxiliary Coulomb fitting basis             ... AVAILABLE
   # of basis functions in Aux-J            ...    109
   # of shells in Aux-J                     ...     35
   Maximum angular momentum in Aux-J        ...      4
Auxiliary J/K fitting basis                 ... NOT available
Auxiliary Correlation fitting basis         ... NOT available
Auxiliary 'external' fitting basis          ... NOT available
Integral threshold                          ...     2.500000e-11
Primitive cut-off                           ...     2.500000e-12
Primitive pair pre-selection threshold      ...     2.500000e-12

Calculating pre-screening integrals         ... done (  0.1 sec) Dimension = 26
Organizing shell pair data                  ... done (  0.0 sec)
Shell pair information
Total number of shell pairs                 ...       351
Shell pairs after pre-screening             ...       350
Total number of primitive shell pairs       ...      1128
Primitive shell pairs kept                  ...      1035
          la=0 lb=0:     90 shell pairs
          la=1 lb=0:     91 shell pairs
          la=1 lb=1:     28 shell pairs
          la=2 lb=0:     52 shell pairs
          la=2 lb=1:     28 shell pairs
          la=2 lb=2:     10 shell pairs
          la=3 lb=0:     26 shell pairs
          la=3 lb=1:     14 shell pairs
          la=3 lb=2:      8 shell pairs
          la=3 lb=3:      3 shell pairs

Calculating one electron integrals          ... done (  0.0 sec)
Calculating RI/J V-Matrix + Cholesky decomp.... done (  0.0 sec)
Calculating Nuclear repulsion               ... done (  0.0 sec) ENN=     24.729148383005 Eh

SHARK setup successfully completed in   0.2 seconds

Maximum memory used throughout the entire GTOINT-calculation: 14.0 MB
-------------------------------------------------------------------------------
                                 ORCA SCF
-------------------------------------------------------------------------------

------------
SCF SETTINGS
------------
Hamiltonian:
 Density Functional     Method          .... DFT(GTOs)
 Exchange Functional    Exchange        .... PBE
   PBE kappa parameter   XKappa         ....  0.804000
   PBE mue parameter    XMuePBE         ....  0.219520
 Correlation Functional Correlation     .... PBE
   PBE beta parameter  CBetaPBE         ....  0.066725
 LDA part of GGA corr.  LDAOpt          .... PW91-LDA
 Gradients option       PostSCFGGA      .... off
 Hybrid DFT is turned on
   Fraction HF Exchange ScalHFX         ....  0.250000
   Scaling of DF-GGA-X  ScalDFX         ....  0.750000
   Scaling of DF-GGA-C  ScalDFC         ....  1.000000
   Scaling of DF-LDA-C  ScalLDAC        ....  1.000000
   Perturbative correction              ....  0.000000
   Density functional embedding theory  .... OFF
   NL short-range parameter             ....  6.900000
 RI-approximation to the Coulomb term is turned on
   Number of AuxJ basis functions       .... 109
   RIJ-COSX (HFX calculated with COS-X)).... on


General Settings:
 Integral files         IntName         .... input
 Hartree-Fock type      HFTyp           .... RHF
 Total Charge           Charge          ....    0
 Multiplicity           Mult            ....    1
 Number of Electrons    NEL             ....   14
 Basis Dimension        Dim             ....   68
 Nuclear Repulsion      ENuc            ....     24.7291483830 Eh

Convergence Acceleration:
 DIIS                   CNVDIIS         .... on
   Start iteration      DIISMaxIt       ....    12
   Startup error        DIISStart       ....  0.200000
   # of expansion vecs  DIISMaxEq       ....     5
   Bias factor          DIISBfac        ....   1.050
   Max. coefficient     DIISMaxC        ....  10.000
 Trust-Rad. Augm. Hess. CNVTRAH         .... auto
   Auto Start mean grad. ratio tolernc. ....  1.125000
   Auto Start start iteration           ....    20
   Auto Start num. interpolation iter.  ....    10
   Max. Number of Micro iterations      ....    16
   Max. Number of Macro iterations      .... Maxiter - #DIIS iter
   Number of Davidson start vectors     ....     2
   Converg. threshold I  (grad. norm)   ....   1.000e-05
   Converg. threshold II (energy diff.) ....   1.000e-08
   Grad. Scal. Fac. for Micro threshold ....   0.100
   Minimum threshold for Micro iter.    ....   0.010
   NR start threshold (gradient norm)   ....   0.001
   Initial trust radius                 ....   0.400
   Minimum AH scaling param. (alpha)    ....   1.000
   Maximum AH scaling param. (alpha)    .... 1000.000
   Orbital update algorithm             .... Taylor
   White noise on init. David. guess    .... on
   Maximum white noise                  ....   0.010
   Quad. conv. algorithm                .... NR
 SOSCF                  CNVSOSCF        .... on
   Start iteration      SOSCFMaxIt      ....   150
   Startup grad/error   SOSCFStart      ....  0.003300
 Level Shifting         CNVShift        .... on
   Level shift para.    LevelShift      ....    0.2500
   Turn off err/grad.   ShiftErr        ....    0.0010
 Zerner damping         CNVZerner       .... off
 Static damping         CNVDamp         .... on
   Fraction old density DampFac         ....    0.7000
   Max. Damping (<1)    DampMax         ....    0.9800
   Min. Damping (>=0)   DampMin         ....    0.0000
   Turn off err/grad.   DampErr         ....    0.1000
 Fernandez-Rico         CNVRico         .... off

SCF Procedure:
 Maximum # iterations   MaxIter         ....   125
 SCF integral mode      SCFMode         .... Direct
   Integral package                     .... SHARK and LIBINT hybrid scheme
 Reset frequency        DirectResetFreq ....    20
 Integral Threshold     Thresh          ....  2.500e-11 Eh
 Primitive CutOff       TCut            ....  2.500e-12 Eh

Convergence Tolerance:
 Convergence Check Mode ConvCheckMode   .... Total+1el-Energy
 Convergence forced     ConvForced      .... 0
 Energy Change          TolE            ....  1.000e-08 Eh
 1-El. energy change                    ....  1.000e-05 Eh
 Orbital Gradient       TolG            ....  1.000e-05
 Orbital Rotation angle TolX            ....  1.000e-05
 DIIS Error             TolErr          ....  5.000e-07


Diagonalization of the overlap matrix:
Smallest eigenvalue                        ... 6.537e-04
Time for diagonalization                   ...    0.002 sec
Threshold for overlap eigenvalues          ... 1.000e-08
Number of eigenvalues below threshold      ... 0
Time for construction of square roots      ...    0.000 sec
Total time needed                          ...    0.003 sec

Time for model grid setup =    0.025 sec

------------------------------
INITIAL GUESS: MODEL POTENTIAL
------------------------------
Loading Hartree-Fock densities                     ... done
Calculating cut-offs                               ... done
Initializing the effective Hamiltonian             ... done
Setting up the integral package (SHARK)            ... done
Starting the Coulomb interaction                   ... done (   0.0 sec)
Reading the grid                                   ... done
Mapping shells                                     ... done
Starting the XC term evaluation                    ... done (   0.0 sec)
  promolecular density results
     # of electrons  =     13.999449213
     EX              =    -11.858929302
     EC              =     -0.436512385
     EX+EC           =    -12.295441687
Transforming the Hamiltonian                       ... done (   0.0 sec)
Diagonalizing the Hamiltonian                      ... done (   0.0 sec)
Back transforming the eigenvectors                 ... done (   0.0 sec)
Now organizing SCF variables                       ... done
                      ------------------
                      INITIAL GUESS DONE (   0.1 sec)
                      ------------------
-------------------
DFT GRID GENERATION
-------------------

General Integration Accuracy     IntAcc      ... 4.388
Radial Grid Type                 RadialGrid  ... OptM3 with GC (2021)
Angular Grid (max. ang.)         AngularGrid ... 4 (Lebedev-302)
Angular grid pruning method      GridPruning ... 4 (adaptive)
Weight generation scheme         WeightScheme... Becke
Basis function cutoff            BFCut       ... 1.0000e-11
Integration weight cutoff        WCut        ... 1.0000e-14
Angular grids for H and He will be reduced by one unit
Partially contracted basis set               ... off
Rotationally invariant grid construction     ... off

Total number of grid points                  ...    15545
Total number of batches                      ...      244
Average number of points per batch           ...       63
Average number of grid points per atom       ...     5182
Time for grid setup =    0.129 sec

--------------------
COSX GRID GENERATION
--------------------

GRIDX 1
-------
General Integration Accuracy     IntAcc      ... 3.816
Radial Grid Type                 RadialGrid  ... OptM3 with GC (2021)
Angular Grid (max. ang.)         AngularGrid ... 1 (Lebedev-50)
Angular grid pruning method      GridPruning ... 4 (adaptive)
Weight generation scheme         WeightScheme... Becke
Basis function cutoff            BFCut       ... 1.0000e-11
Integration weight cutoff        WCut        ... 1.0000e-14
Angular grids for H and He will be reduced by one unit
Partially contracted basis set               ... on
Rotationally invariant grid construction     ... off

Total number of grid points                  ...     1959
Total number of batches                      ...       32
Average number of points per batch           ...       61
Average number of grid points per atom       ...      653
UseSFitting                                  ... on

GRIDX 2
-------
General Integration Accuracy     IntAcc      ... 4.020
Radial Grid Type                 RadialGrid  ... OptM3 with GC (2021)
Angular Grid (max. ang.)         AngularGrid ... 2 (Lebedev-110)
Angular grid pruning method      GridPruning ... 4 (adaptive)
Weight generation scheme         WeightScheme... Becke
Basis function cutoff            BFCut       ... 1.0000e-11
Integration weight cutoff        WCut        ... 1.0000e-14
Angular grids for H and He will be reduced by one unit
Partially contracted basis set               ... on
Rotationally invariant grid construction     ... off

Total number of grid points                  ...     4548
Total number of batches                      ...       73
Average number of points per batch           ...       62
Average number of grid points per atom       ...     1516
UseSFitting                                  ... on

GRIDX 3
-------
General Integration Accuracy     IntAcc      ... 4.338
Radial Grid Type                 RadialGrid  ... OptM3 with GC (2021)
Angular Grid (max. ang.)         AngularGrid ... 3 (Lebedev-194)
Angular grid pruning method      GridPruning ... 4 (adaptive)
Weight generation scheme         WeightScheme... Becke
Basis function cutoff            BFCut       ... 1.0000e-11
Integration weight cutoff        WCut        ... 1.0000e-14
Angular grids for H and He will be reduced by one unit
Partially contracted basis set               ... on
Rotationally invariant grid construction     ... off

Total number of grid points                  ...    10173
Total number of batches                      ...      160
Average number of points per batch           ...       63
Average number of grid points per atom       ...     3391
UseSFitting                                  ... on

Time for X-Grid setup             =    0.125 sec

--------------
SCF ITERATIONS
--------------
ITER       Energy         Delta-E        Max-DP      RMS-DP      [F,P]     Damp
               ***  Starting incremental Fock matrix formation  ***
  0    -93.2205017484   0.000000000000 0.03940609  0.00181938  0.2439850 0.7000
  1    -93.2534004259  -0.032898677535 0.02360862  0.00120620  0.1146504 0.7000
                               ***Turning on DIIS***
  2    -93.2653536519  -0.011953225952 0.05838590  0.00211154  0.0396649 0.0000
  3    -93.2856420159  -0.020288364053 0.01683745  0.00084692  0.0529724 0.0000
  4    -93.2893128289  -0.003670812949 0.01008846  0.00036712  0.0154949 0.0000
                      *** Initiating the SOSCF procedure ***
                           *** Shutting down DIIS ***
                      *** Re-Reading the Fockian *** 
                      *** Removing any level shift *** 
ITER      Energy       Delta-E        Grad      Rot      Max-DP    RMS-DP
  5    -93.28969786  -0.0003850346  0.000542  0.000542  0.002886  0.000107
               *** Restarting incremental Fock matrix formation ***
  6    -93.28967868   0.0000191866  0.000264  0.000616  0.001222  0.000052
  7    -93.28967860   0.0000000794  0.000417  0.000338  0.000237  0.000016
  8    -93.28967944  -0.0000008428  0.000042  0.000078  0.000173  0.000009
  9    -93.28967946  -0.0000000203  0.000016  0.000021  0.000015  0.000001
 10    -93.28967946  -0.0000000042  0.000003  0.000009  0.000015  0.000001
                 **** Energy Check signals convergence ****
              ***Rediagonalizing the Fockian in SOSCF/NRSCF***

               *****************************************************
               *                     SUCCESS                       *
               *           SCF CONVERGED AFTER  11 CYCLES          *
               *****************************************************

Old exchange energy                            =     -3.016156475 Eh
New exchange energy                            =     -3.016160795 Eh
Exchange energy change after final integration =     -0.000004320 Eh
Total energy after final integration           =    -93.289683784 Eh
Final COS-X integration done in                =     0.646 sec

----------------
TOTAL SCF ENERGY
----------------

Total Energy       :          -93.28968378 Eh           -2538.54135 eV

Components:
Nuclear Repulsion  :           24.72914838 Eh             672.91434 eV
Electronic Energy  :         -118.01883217 Eh           -3211.45569 eV
One Electron Energy:         -174.14753097 Eh           -4738.79523 eV
Two Electron Energy:           56.12869881 Eh            1527.33954 eV
Max COSX asymmetry :            0.00000141 Eh               0.00004 eV

Virial components:
Potential Energy   :         -186.38419569 Eh           -5071.77181 eV
Kinetic Energy     :           93.09451190 Eh            2533.23046 eV
Virial Ratio       :            2.00209649


DFT components:
N(Alpha)           :        6.999998013334 electrons
N(Beta)            :        6.999998013334 electrons
N(Total)           :       13.999996026668 electrons
E(X)               :       -9.039483165866 Eh       
E(C)               :       -0.442642734851 Eh       
E(XC)              :       -9.482125900717 Eh       
DFET-embed. en.    :        0.000000000000 Eh       

---------------
SCF CONVERGENCE
---------------

  Last Energy change         ...   -4.4764e-11  Tolerance :   1.0000e-08
  Last MAX-Density change    ...    7.7716e-16  Tolerance :   1.0000e-07
  Last RMS-Density change    ...    2.0512e-17  Tolerance :   5.0000e-09
  Last Orbital Gradient      ...    5.9905e-07  Tolerance :   1.0000e-05
  Last Orbital Rotation      ...    1.6835e-06  Tolerance :   1.0000e-05

             **** THE GBW FILE WAS UPDATED (input.gbw) ****
             **** DENSITY input.scfp WAS UPDATED ****
             **** ENERGY FILE WAS UPDATED (input.en.tmp) ****
             **** THE GBW FILE WAS UPDATED (input.gbw) ****
             **** DENSITY input.scfp WAS UPDATED ****
----------------
ORBITAL ENERGIES
----------------

  NO   OCC          E(Eh)            E(eV) 
   0   2.0000     -14.423910      -392.4945 
   1   2.0000     -10.296238      -280.1749 
   2   2.0000      -1.032866       -28.1057 
   3   2.0000      -0.581115       -15.8129 
   4   2.0000      -0.461824       -12.5669 
   5   2.0000      -0.412717       -11.2306 
   6   2.0000      -0.346753        -9.4356 
   7   0.0000      -0.039971        -1.0877 
   8   0.0000       0.016119         0.4386 
   9   0.0000       0.038166         1.0386 
  10   0.0000       0.174504         4.7485 
  11   0.0000       0.208570         5.6755 
  12   0.0000       0.229231         6.2377 
  13   0.0000       0.255830         6.9615 
  14   0.0000       0.290517         7.9054 
  15   0.0000       0.363839         9.9006 
  16   0.0000       0.416885        11.3440 
  17   0.0000       0.444258        12.0889 
  18   0.0000       0.553130        15.0514 
  19   0.0000       0.607900        16.5418 
  20   0.0000       0.647792        17.6273 
  21   0.0000       0.780282        21.2326 
  22   0.0000       0.814634        22.1673 
  23   0.0000       0.856187        23.2980 
  24   0.0000       1.073448        29.2100 
  25   0.0000       1.113574        30.3019 
  26   0.0000       1.253684        34.1145 
  27   0.0000       1.266148        34.4536 
  28   0.0000       1.335435        36.3390 
  29   0.0000       1.402029        38.1512 
  30   0.0000       1.417888        38.5827 
  31   0.0000       1.490259        40.5520 
  32   0.0000       1.514478        41.2111 
  33   0.0000       1.736795        47.2606 
  34   0.0000       1.798138        48.9298 
  35   0.0000       1.967707        53.5440 
  36   0.0000       2.051773        55.8316 
  37   0.0000       2.179325        59.3024 
  38   0.0000       2.226940        60.5981 
  39   0.0000       2.443707        66.4966 
  40   0.0000       2.620033        71.2947 
  41   0.0000       2.680674        72.9448 
  42   0.0000       2.740318        74.5678 
  43   0.0000       2.829007        76.9812 
  44   0.0000       2.915312        79.3297 
  45   0.0000       2.920128        79.4607 
  46   0.0000       2.984940        81.2244 
  47   0.0000       3.040496        82.7361 
  48   0.0000       3.096674        84.2648 
  49   0.0000       3.282790        89.3292 
  50   0.0000       3.380369        91.9845 
  51   0.0000       3.390037        92.2476 
  52   0.0000       3.470215        94.4294 
  53   0.0000       3.965223       107.8992 
  54   0.0000       4.156107       113.0934 
  55   0.0000       4.409204       119.9806 
  56   0.0000       4.486558       122.0855 
  57   0.0000       4.620344       125.7260 
  58   0.0000       4.688988       127.5939 
  59   0.0000       4.832049       131.4867 
  60   0.0000       4.878822       132.7595 
  61   0.0000       5.018835       136.5694 
  62   0.0000       5.360651       145.8707 
  63   0.0000       5.401759       146.9893 
  64   0.0000       5.593448       152.2055 
  65   0.0000       5.720743       155.6693 
  66   0.0000      21.949691       597.2815 
  67   0.0000      31.910453       868.3276 

                    ********************************
                    * MULLIKEN POPULATION ANALYSIS *
                    ********************************

-----------------------
MULLIKEN ATOMIC CHARGES
-----------------------
   0 N :   -0.087864
   1 C :   -0.195981
   2 H :    0.283845
Sum of atomic charges:   -0.0000000

--------------------------------
MULLIKEN REDUCED ORBITAL CHARGES
--------------------------------
  0 N s       :     3.590879  s :     3.590879
      pz      :     1.190026  p :     3.449219
      px      :     1.026015
      py      :     1.233179
      dz2     :     0.011066  d :     0.046090
      dxz     :     0.011666
      dyz     :     0.015901
      dx2y2   :     0.006351
      dxy     :     0.001105
      f0      :    -0.000121  f :     0.001676
      f+1     :     0.000307
      f-1     :     0.000954
      f+2     :     0.000046
      f-2     :     0.000001
      f+3     :     0.000420
      f-3     :     0.000069
  1 C s       :     3.905820  s :     3.905820
      pz      :     1.077105  p :     2.183046
      px      :     0.410648
      py      :     0.695293
      dz2     :     0.022014  d :     0.097801
      dxz     :     0.036597
      dyz     :     0.037746
      dx2y2   :     0.001135
      dxy     :     0.000308
      f0      :     0.001370  f :     0.009314
      f+1     :     0.003818
      f-1     :     0.003891
      f+2     :     0.000160
      f-2     :     0.000022
      f+3     :     0.000038
      f-3     :     0.000015
  2 H s       :     0.674650  s :     0.674650
      pz      :     0.011784  p :     0.041506
      px      :     0.019340
      py      :     0.010382


                     *******************************
                     * LOEWDIN POPULATION ANALYSIS *
                     *******************************

----------------------
LOEWDIN ATOMIC CHARGES
----------------------
   0 N :   -0.015814
   1 C :   -0.227471
   2 H :    0.243285

-------------------------------
LOEWDIN REDUCED ORBITAL CHARGES
-------------------------------
  0 N s       :     3.208457  s :     3.208457
      pz      :     1.518130  p :     3.683962
      px      :     1.026320
      py      :     1.139513
      dz2     :     0.062824  d :     0.111453
      dxz     :     0.012240
      dyz     :     0.021864
      dx2y2   :     0.013867
      dxy     :     0.000659
      f0      :     0.006957  f :     0.011942
      f+1     :     0.000600
      f-1     :     0.003149
      f+2     :     0.000007
      f-2     :     0.000001
      f+3     :     0.001196
      f-3     :     0.000032
  1 C s       :     3.366554  s :     3.366554
      pz      :     1.358297  p :     2.517738
      px      :     0.442842
      py      :     0.716599
      dz2     :     0.117617  d :     0.285258
      dxz     :     0.089160
      dyz     :     0.075700
      dx2y2   :     0.002498
      dxy     :     0.000283
      f0      :     0.017295  f :     0.057921
      f+1     :     0.020674
      f-1     :     0.019330
      f+2     :     0.000473
      f-2     :     0.000041
      f+3     :     0.000099
      f-3     :     0.000010
  2 H s       :     0.649860  s :     0.649860
      pz      :     0.030320  p :     0.106855
      px      :     0.054396
      py      :     0.022139


                      *****************************
                      * MAYER POPULATION ANALYSIS *
                      *****************************

  NA   - Mulliken gross atomic population
  ZA   - Total nuclear charge
  QA   - Mulliken gross atomic charge
  VA   - Mayer's total valence
  BVA  - Mayer's bonded valence
  FA   - Mayer's free valence

  ATOM       NA         ZA         QA         VA         BVA        FA
  0 N      7.0879     7.0000    -0.0879     2.9291     2.9291    -0.0000
  1 C      6.1960     6.0000    -0.1960     2.3907     2.3907    -0.0000
  2 H      0.7162     1.0000     0.2838     0.9622     0.9622    -0.0000

  Mayer bond orders larger than 0.100000
B(  0-N ,  1-C ) :   2.1788 B(  0-N ,  2-H ) :   0.7503 B(  1-C ,  2-H ) :   0.2119 


-------
TIMINGS
-------

Total SCF time: 0 days 0 hours 0 min 6 sec 

Total time                  ....       6.046 sec
Sum of individual times     ....       5.911 sec  ( 97.8%)

Fock matrix formation       ....       5.577 sec  ( 92.2%)
  Split-RI-J                ....       0.392 sec  (  7.0% of F)
  Chain of spheres X        ....       3.662 sec  ( 65.7% of F)
  XC integration            ....       1.520 sec  ( 27.3% of F)
    Basis function eval.    ....       0.471 sec  ( 31.0% of XC)
    Density eval.           ....       0.295 sec  ( 19.4% of XC)
    XC-Functional eval.     ....       0.275 sec  ( 18.1% of XC)
    XC-Potential eval.      ....       0.403 sec  ( 26.5% of XC)
Diagonalization             ....       0.006 sec  (  0.1%)
Density matrix formation    ....       0.001 sec  (  0.0%)
Population analysis         ....       0.002 sec  (  0.0%)
Initial guess               ....       0.039 sec  (  0.7%)
Orbital Transformation      ....       0.000 sec  (  0.0%)
Orbital Orthonormalization  ....       0.000 sec  (  0.0%)
DIIS solution               ....       0.002 sec  (  0.0%)
SOSCF solution              ....       0.003 sec  (  0.1%)
Grid generation             ....       0.280 sec  (  4.6%)

Maximum memory used throughout the entire SCF-calculation: 64.4 MB

-------------------------   --------------------
FINAL SINGLE POINT ENERGY       -93.289683784286
-------------------------   --------------------

------------------------------------------------------------------------------
                         ORCA SCF GRADIENT CALCULATION
------------------------------------------------------------------------------

 ... reading COSX grid (gridx3)
Gradient of the Kohn-Sham DFT energy:
Kohn-Sham wavefunction type      ... RKS
Hartree-Fock exchange scaling    ...    0.250
Number of operators              ...    1
Number of atoms                  ...    3
Basis set dimensions             ...   68
Integral neglect threshold       ... 2.5e-11
Integral primitive cutoff        ... 2.5e-12
SHARK Integral package           ... ON

Nuc. rep. gradient       (SHARK) ... done (  0.0 sec)
HCore & Overlap gradient (SHARK) ... done (  0.0 sec)
RI-J gradient            (SHARK) ... done (  0.2 sec)
COSX-gradient                    ... done (  0.8 sec)
Exchange-correlation gradient    ... done

------------------
CARTESIAN GRADIENT
------------------

   1   N   :    0.018305956   -0.000920977   -0.065234978
   2   C   :   -0.015430688    0.000765574    0.081863451
   3   H   :   -0.002908228    0.000142688   -0.016635793

Difference to translation invariance:
           :   -0.0000329603   -0.0000127150   -0.0000073201

Difference to rotation invariance:
           :   -0.0000110489   -0.0000138061    0.0000871106

Norm of the cartesian gradient     ...    0.1087064999
RMS gradient                       ...    0.0362355000
MAX gradient                       ...    0.0818634508

-------
TIMINGS
-------

Total SCF gradient time            ...        1.685 sec

One electron gradient       ....       0.014 sec  (  0.8%)
RI-J Coulomb gradient       ....       0.184 sec  ( 10.9%)
COSX gradient               ....       0.786 sec  ( 46.6%)
XC gradient                 ....       0.490 sec  ( 29.1%)

Maximum memory used throughout the entire SCFGRAD-calculation: 39.4 MB

                            ***************************************
                            *     ORCA property calculations      *
                            ***************************************

                                    ---------------------
                                    Active property flags
                                    ---------------------
   (+) Dipole Moment
   (+) Chemical Shifts
   (+) Nuclear properties (Hyperfine,Quadrupole)


------------------------------------------------------------------------------
                       ORCA ELECTRIC PROPERTIES CALCULATION
------------------------------------------------------------------------------

Dipole Moment Calculation                       ... on
Quadrupole Moment Calculation                   ... off
Polarizability Calculation                      ... off
GBWName                                         ... input.gbw
Electron density                                ... input.scfp
The origin for moment calculation is the CENTER OF MASS  = (-1.982771,  1.819502 -0.971816)

-------------
DIPOLE MOMENT
-------------
                                X             Y             Z
Electronic contribution:      0.35819      -0.01774      -0.16447
Nuclear contribution   :     -0.95582       0.04737       0.48530
                        -----------------------------------------
Total Dipole Moment    :     -0.59764       0.02963       0.32084
                        -----------------------------------------
Magnitude (a.u.)       :      0.67896
Magnitude (Debye)      :      1.72578



--------------------
Rotational spectrum 
--------------------
 
Rotational constants in cm-1:    16.082196     1.877884     1.681534 
Rotational constants in MHz : 482132.096239 56297.536343 50411.135583 

 Dipole components along the rotational axes: 
x,y,z [a.u.] :     0.363445     0.573492    -0.000011 
x,y,z [Debye]:     0.923805     1.457702    -0.000027 

 
------------------------------------------------------------------------------
                                ORCA EPR/NMR CALCULATION
------------------------------------------------------------------------------

GBWName                      ... input.gbw
Electron density             ... input.scfp
Spin density                 ... input.scfr
Treatment of gauge           ... GIAO (approximations 1/2el = 0,0)
Details of the CP(SCF) procedure:
       Solver   = POPLE   
       MaxIter  =    64   
       Tolerance=    1.000e-04
       COSX Grid=     1   
       Op-0     =   0-  6 =>   7- 67
Multiplicity                 ... 1
g-tensor                     ... 0
NMR chemical shifts          ... 1
NMR spin-spin couplings      ... 0
NMR spectrum                 ... 0
Number of nuclei for epr/nmr ... 3
   Nucleus:   0N 
       Hyperfine : Isotope=   14 I=   1.000 P=  38.568
       Quadrupole: Isotope=   14 I=   1.000 Q=   0.020
       Spin-Orbit: Zeff=   4.550
       Nuclear Spin-Spin: Gn=   0.000
       EPRNMR Input: 
       rho(0)=N f(grad)=N a(iso)=N a(dip)=N a(orb)=N sigma(nmr)=Y spin-spin(nmr)=all-N,DSO-N,PSO-N,FC-N,SD-N
   Nucleus:   1C 
       Hyperfine : Isotope=   13 I=   0.500 P= 134.190
       Quadrupole: Isotope=   13 I=   0.500 Q=   0.000
       Spin-Orbit: Zeff=   3.600
       Nuclear Spin-Spin: Gn=   0.000
       EPRNMR Input: 
       rho(0)=N f(grad)=N a(iso)=N a(dip)=N a(orb)=N sigma(nmr)=Y spin-spin(nmr)=all-N,DSO-N,PSO-N,FC-N,SD-N
   Nucleus:   2H 
       Hyperfine : Isotope=    1 I=   0.500 P= 533.551
       Quadrupole: Isotope=    2 I=   1.000 Q=   0.003
       Spin-Orbit: Zeff=   1.000
       Nuclear Spin-Spin: Gn=   0.000
       EPRNMR Input: 
       rho(0)=N f(grad)=N a(iso)=N a(dip)=N a(orb)=N sigma(nmr)=Y spin-spin(nmr)=all-N,DSO-N,PSO-N,FC-N,SD-N
Forming RHS of the CP-SCF equations         ... 
Calculating right hand sides for GIAO treatment        ... 
  Entering RightHandSide GIAO. ScalHFX=    0.2500 NeedHFX=1
     -> 1-electron GIAO integrals will be done analytically
     -> RIJCOSX used in SCF. Same chosen for GIAO calculation.
     Making grid for GIAO integrations   ...

GRID GIAO
---------

General Integration Accuracy     IntAcc      ... 4.388
Radial Grid Type                 RadialGrid  ... OptM3 with GC (2021)
Angular Grid (max. ang.)         AngularGrid ... 4 (Lebedev-302)
Angular grid pruning method      GridPruning ... 4 (adaptive)
Weight generation scheme         WeightScheme... Becke
Basis function cutoff            BFCut       ... 1.0000e-11
Integration weight cutoff        WCut        ... 1.0000e-14
Angular grids for H and He will be reduced by one unit
Partially contracted basis set               ... off
Rotationally invariant grid construction     ... off

Total number of grid points                  ...    15545
Total number of batches                      ...      244
Average number of points per batch           ...       63
Average number of grid points per atom       ...     5182

  One-electron GIAO integrals (SHARK)     ... done
  Calculating G(B)[P]                     ... (RI-J: SHARK-ok) (COSX-ok) (add-J+K:ok) => dG/dB done
  DFT XC-terms                            ... done
  Extracting occupied and virtual blocks  ... 
  Operator  0  NO=   7 NV=  61 
  Transforming and RHS contribution       ... done
  Adding eps_i * S(B)_ai terms            ... done
  Projecting overlap derivatives          ... done
  Building G[dS/dB_ij] (COSX)             ... done
  Transforming to MO basis                ... done
  Summing G[dS/dB_ij] into RHS contribs.  ... done

  GIAO profiling information: 
    Total GIAO time               ...       1.6 sec
       GIAO 1-electron integrals  ...       0.0 sec (  0.4%)
       GIAO G(dS/dB) terms        ...       0.1 sec (  8.1%)
       GIAO RI-J                  ...       0.1 sec (  8.0%)
       GIAO COSX                  ...       0.4 sec ( 27.0%)
       GIAO XC-terms              ...       0.8 sec ( 48.6%)

  GIAO right hand side done


------------------------------------------------------------------------------
                           ORCA CP-SCF CALCULATION
------------------------------------------------------------------------------

Input orbitals are from        ... input.gbw
Input Perturbation             ... input.pin.tmp
Wavefunction output            ... input.pout.tmp
Perturbation mode              ... Imaginary perturbation
Solver                         ... POPLE
Max. number of iterations      ... 64
Convergence tolerance          ... 1.000e-04
Integral handling              ... Direct
DFT GridXC                     ... 1
COSX GridX                     ... 1
COSX IntAccX                   ... 3.067
COSX Algorithm                 ... Auto
Number of perturbations        ... 3
Number of operators            ... 1
Orbital ranges used for CP-SCF:
 Operator 0:  Orbitals   0...  6  to   7... 67
Variables per perturbation     ... 427
DFT calculation                         ... on
XC functional terms                     ... off
Hybrid DFT                              ... on
   Exchange mixing (SCF)                ...  0.250
   Exchange mixing (CP-SCF)             ...  0.250
   GGA exch. scaling(SCF)               ...  0.750
   GGA exch. scaling (CP-SCF)           ...  0.750
   GGA corr. scaling (SCF)              ...  1.000
   GGA corr. scaling (CP-SCF)           ...  1.000

CP-SCF GRID
-----------

General Integration Accuracy     IntAcc      ... 3.467
Radial Grid Type                 RadialGrid  ... OptM3 with GC (2021)
Angular Grid (max. ang.)         AngularGrid ... 1 (Lebedev-50)
Angular grid pruning method      GridPruning ... 4 (adaptive)
Weight generation scheme         WeightScheme... Becke
Basis function cutoff            BFCut       ... 1.0000e-11
Integration weight cutoff        WCut        ... 1.0000e-14
Angular grids for H and He will be reduced by one unit
Partially contracted basis set               ... off
Rotationally invariant grid construction     ... off

Total number of grid points                  ...     2342
Total number of batches                      ...       38
Average number of points per batch           ...       61
Average number of grid points per atom       ...      781

CP-SCF GRIDX
------------

General Integration Accuracy     IntAcc      ... 3.067
Radial Grid Type                 RadialGrid  ... OptM3 with GC (2021)
Angular Grid (max. ang.)         AngularGrid ... 1 (Lebedev-50)
Angular grid pruning method      GridPruning ... 4 (adaptive)
Weight generation scheme         WeightScheme... Becke
Basis function cutoff            BFCut       ... 1.0000e-11
Integration weight cutoff        WCut        ... 1.0000e-14
Angular grids for H and He will be reduced by one unit
Partially contracted basis set               ... on
Rotationally invariant grid construction     ... off

Total number of grid points                  ...     1044
Total number of batches                      ...       18
Average number of points per batch           ...       58
Average number of grid points per atom       ...      348

Memory available               ... 1004.2 MB
Memory needed per perturbation ...   0.6 MB
Perturbations treated per batch... 3
Number of batches              ... 1
     CP-SCF ITERATION   0:   4.3678e-01 (   0.1 sec   0/  3 done)
     CP-SCF ITERATION   1:   1.6994e-02 (   0.1 sec   0/  3 done)
     CP-SCF ITERATION   2:   8.7430e-04 (   0.1 sec   0/  3 done)
     CP-SCF ITERATION   3:   1.0173e-04 (   0.1 sec   2/  3 done)
     CP-SCF ITERATION   4:   8.6880e-06 (   0.1 sec   3/  3 done)
                    *** THE CP-SCF HAS CONVERGED ***

Forming final perturbed densities           ... done
Transforming perturbed density to AO basis  ... done

Magnetic field perturbation calculated in  2.266 sec

---------------
CHEMICAL SHIFTS
---------------

Note: using conversion factor for au to ppm alpha^2/2 =   26.625677252 
GIAO: Analytic para- and diamagnetic shielding integrals (SHARK)       ...done
 --------------
 Nucleus   0N :
 --------------

Diamagnetic contribution to the shielding tensor (ppm) : 
           314.915        -10.384        -1.638
            -1.066        293.985         0.083
            -4.540         -5.576       333.774

Paramagnetic contribution to the shielding tensor (ppm): 
          -520.188         19.075        38.289
             9.760       -324.240        -1.904
           -49.048          8.216         0.399

Total shielding tensor (ppm): 
          -205.273          8.691        36.651
             8.695        -30.254        -1.821
           -53.588          2.640       334.173


 Diagonalized sT*s matrix:
 
 sDSO           293.470          315.497          333.707  iso=     314.225
 sPSO          -323.294         -472.173          -48.561  iso=    -281.343
        ---------------  ---------------  ---------------
 Total          -29.824         -156.676          285.146  iso=      32.882

 --------------
 Nucleus   1C :
 --------------

Diamagnetic contribution to the shielding tensor (ppm) : 
           257.554         -2.407        -0.272
            -0.163        254.348         0.014
             0.955          1.717       272.364

Paramagnetic contribution to the shielding tensor (ppm): 
          -418.828         -3.279       -64.199
            -5.508       -530.145         3.183
           -22.462         -0.653       -45.824

Total shielding tensor (ppm): 
          -161.274         -5.685       -64.471
            -5.670       -275.797         3.196
           -21.507          1.065       226.540


 Diagonalized sT*s matrix:
 
 sDSO           258.044          271.993          254.229  iso=     261.422
 sPSO          -391.216          -73.274         -530.307  iso=    -331.599
        ---------------  ---------------  ---------------
 Total         -133.172          198.720         -276.078  iso=     -70.177

 --------------
 Nucleus   2H :
 --------------

Diamagnetic contribution to the shielding tensor (ppm) : 
            38.570         -6.959        -6.612
            -1.316         12.365         0.327
            -4.198          0.123        23.305

Paramagnetic contribution to the shielding tensor (ppm): 
           -14.040          7.274         1.790
             1.630         18.470        -0.088
             0.480          0.061         1.671

Total shielding tensor (ppm): 
            24.530          0.314        -4.822
             0.314         30.835         0.239
            -3.718          0.185        24.976


 Diagonalized sT*s matrix:
 
 sDSO            26.312           35.909           12.019  iso=      24.747
 sPSO            -5.847           -6.884           18.831  iso=       2.034
        ---------------  ---------------  ---------------
 Total           20.465           29.026           30.850  iso=      26.780



--------------------------------
CHEMICAL SHIELDING SUMMARY (ppm)
--------------------------------


  Nucleus  Element    Isotropic     Anisotropy
  -------  -------  ------------   ------------
      0       N           32.882        378.396 
      1       C          -70.177       -308.852 
      2       H           26.780          6.105 



Maximum memory used throughout the entire EPRNMR-calculation: 21.9 MB

----------------------------------------------------------------------------
                           ORCA NUMERICAL FREQUENCIES
----------------------------------------------------------------------------

Number of atoms                ... 3
Central differences            ... used
Number of displacements        ... 18
Numerical increment            ... 5.000e-03 bohr
IR-spectrum generation         ... on
Raman-spectrum generation      ... off
Surface Crossing Hessian       ... off

The output will be reduced. Please look at the following files:
SCF program output             ... >input.lastscf
Integral program output        ... >input.lastint
Gradient program output        ... >input.lastgrad
Dipole moment program output   ... >input.lastmom
AutoCI program output          ... >input.lastautoci

	<< Calculating on displaced geometry   1 (of  18) >>
	<< Calculating on displaced geometry   2 (of  18) >>
	<< Calculating on displaced geometry   3 (of  18) >>
	<< Calculating on displaced geometry   4 (of  18) >>
	<< Calculating on displaced geometry   5 (of  18) >>
	<< Calculating on displaced geometry   6 (of  18) >>
	<< Calculating on displaced geometry   7 (of  18) >>
	<< Calculating on displaced geometry   8 (of  18) >>
	<< Calculating on displaced geometry   9 (of  18) >>
	<< Calculating on displaced geometry  10 (of  18) >>
	<< Calculating on displaced geometry  11 (of  18) >>
	<< Calculating on displaced geometry  12 (of  18) >>
	<< Calculating on displaced geometry  13 (of  18) >>
	<< Calculating on displaced geometry  14 (of  18) >>
	<< Calculating on displaced geometry  15 (of  18) >>
	<< Calculating on displaced geometry  16 (of  18) >>
	<< Calculating on displaced geometry  17 (of  18) >>
	<< Calculating on displaced geometry  18 (of  18) >>

-----------------------
VIBRATIONAL FREQUENCIES
-----------------------

Scaling factor for frequencies =  1.000000000 (already applied!)

   0:         0.00 cm**-1
   1:         0.00 cm**-1
   2:         0.00 cm**-1
   3:         0.00 cm**-1
   4:         0.00 cm**-1
   5:         0.00 cm**-1
   6:      -412.40 cm**-1 ***imaginary mode***
   7:      2256.04 cm**-1
   8:      3202.03 cm**-1


------------
NORMAL MODES
------------

These modes are the cartesian displacements weighted by the diagonal matrix
M(i,i)=1/sqrt(m[i]) where m[i] is the mass of the displaced atom
Thus, these vectors are normalized but *not* orthogonal

                  0          1          2          3          4          5    
      0       0.000000   0.000000   0.000000   0.000000   0.000000   0.000000
      1       0.000000   0.000000   0.000000   0.000000   0.000000   0.000000
      2       0.000000   0.000000   0.000000   0.000000   0.000000   0.000000
      3       0.000000   0.000000   0.000000   0.000000   0.000000   0.000000
      4       0.000000   0.000000   0.000000   0.000000   0.000000   0.000000
      5       0.000000   0.000000   0.000000   0.000000   0.000000   0.000000
      6       0.000000   0.000000   0.000000   0.000000   0.000000   0.000000
      7       0.000000   0.000000   0.000000   0.000000   0.000000   0.000000
      8       0.000000   0.000000   0.000000   0.000000   0.000000   0.000000
                  6          7          8    
      0      -0.071840  -0.000043  -0.061803
      1       0.003560   0.000001   0.003063
      2      -0.044110   0.636916   0.012848
      3       0.075870   0.010699  -0.010743
      4      -0.003760  -0.000529   0.000532
      5      -0.031522  -0.752110  -0.003211
      6       0.094228  -0.126887   0.986820
      7      -0.004672   0.006288  -0.048906
      8       0.988542   0.111421  -0.140266


-----------
IR SPECTRUM
-----------

 Mode   freq       eps      Int      T**2         TX        TY        TZ
       cm**-1   L/(mol*cm) km/mol    a.u.
----------------------------------------------------------------------------
  7:   2256.04   0.015067   76.14  0.002084  ( 0.009834 -0.000489 -0.044578)
  8:   3202.03   0.032361  163.54  0.003154  ( 0.051931 -0.002526 -0.021229)

* The epsilon (eps) is given for a Dirac delta lineshape.
** The dipole moment derivative (T) already includes vibrational overlap.

The first frequency considered to be a vibration is 7
The total number of vibrations considered is 2


--------------------------
THERMOCHEMISTRY AT 298.15K
--------------------------

Temperature         ... 298.15 K
Pressure            ... 1.00 atm
Total Mass          ... 27.03 AMU

Throughout the following assumptions are being made:
  (1) The electronic state is orbitally nondegenerate
  (2) There are no thermally accessible electronically excited states
  (3) Hindered rotations indicated by low frequency modes are not
      treated as such but are treated as vibrations and this may
      cause some error
  (4) All equations used are the standard statistical mechanics
      equations for an ideal gas
  (5) All vibrations are strictly harmonic

freq.    2256.04  E(vib)   ...       0.00 
freq.    3202.03  E(vib)   ...       0.00 

------------
INNER ENERGY
------------

The inner energy is: U= E(el) + E(ZPE) + E(vib) + E(rot) + E(trans)
    E(el)   - is the total energy from the electronic structure calculation
              = E(kin-el) + E(nuc-el) + E(el-el) + E(nuc-nuc)
    E(ZPE)  - the the zero temperature vibrational energy from the frequency calculation
    E(vib)  - the the finite temperature correction to E(ZPE) due to population
              of excited vibrational states
    E(rot)  - is the rotational thermal energy
    E(trans)- is the translational thermal energy

Summary of contributions to the inner energy U:
Electronic energy                ...    -93.28968378 Eh
Zero point energy                ...      0.01243440 Eh       7.80 kcal/mol
Thermal vibrational correction   ...      0.00000020 Eh       0.00 kcal/mol
Thermal rotational correction    ...      0.00141627 Eh       0.89 kcal/mol
Thermal translational correction ...      0.00141627 Eh       0.89 kcal/mol
-----------------------------------------------------------------------
Total thermal energy                    -93.27441665 Eh


Summary of corrections to the electronic energy:
(perhaps to be used in another calculation)
Total thermal correction                  0.00283274 Eh       1.78 kcal/mol
Non-thermal (ZPE) correction              0.01243440 Eh       7.80 kcal/mol
-----------------------------------------------------------------------
Total correction                          0.01526714 Eh       9.58 kcal/mol


--------
ENTHALPY
--------

The enthalpy is H = U + kB*T
                kB is Boltzmann's constant
Total free energy                 ...    -93.27441665 Eh 
Thermal Enthalpy correction       ...      0.00094421 Eh       0.59 kcal/mol
-----------------------------------------------------------------------
Total Enthalpy                    ...    -93.27347244 Eh


Note: Rotational entropy computed according to Herzberg 
Infrared and Raman Spectra, Chapter V,1, Van Nostrand Reinhold, 1945 
Point Group:  Cs, Symmetry Number:   1  
Rotational constants in cm-1:    16.082196     1.877884     1.681534 

Vibrational entropy computed according to the QRRHO of S. Grimme
Chem.Eur.J. 2012 18 9955


-------
ENTROPY
-------

The entropy contributions are T*S = T*(S(el)+S(vib)+S(rot)+S(trans))
     S(el)   - electronic entropy
     S(vib)  - vibrational entropy
     S(rot)  - rotational entropy
     S(trans)- translational entropy
The entropies will be listed as multiplied by the temperature to get
units of energy

Electronic entropy                ...      0.00000000 Eh      0.00 kcal/mol
Vibrational entropy               ...      0.00000021 Eh      0.00 kcal/mol
Rotational entropy                ...      0.00765664 Eh      4.80 kcal/mol
Translational entropy             ...      0.01701823 Eh     10.68 kcal/mol
-----------------------------------------------------------------------
Final entropy term                ...      0.02467509 Eh     15.48 kcal/mol

In case the symmetry of your molecule has not been determined correctly
or in case you have a reason to use a different symmetry number we print 
out the resulting rotational entropy values for sn=1,12 :
 --------------------------------------------------------
|  sn= 1 | S(rot)=       0.00765664 Eh      4.80 kcal/mol|
|  sn= 2 | S(rot)=       0.00700219 Eh      4.39 kcal/mol|
|  sn= 3 | S(rot)=       0.00661936 Eh      4.15 kcal/mol|
|  sn= 4 | S(rot)=       0.00634773 Eh      3.98 kcal/mol|
|  sn= 5 | S(rot)=       0.00613704 Eh      3.85 kcal/mol|
|  sn= 6 | S(rot)=       0.00596490 Eh      3.74 kcal/mol|
|  sn= 7 | S(rot)=       0.00581935 Eh      3.65 kcal/mol|
|  sn= 8 | S(rot)=       0.00569328 Eh      3.57 kcal/mol|
|  sn= 9 | S(rot)=       0.00558207 Eh      3.50 kcal/mol|
|  sn=10 | S(rot)=       0.00548259 Eh      3.44 kcal/mol|
|  sn=11 | S(rot)=       0.00539260 Eh      3.38 kcal/mol|
|  sn=12 | S(rot)=       0.00531044 Eh      3.33 kcal/mol|
 --------------------------------------------------------


-------------------
GIBBS FREE ENERGY
-------------------

The Gibbs free energy is G = H - T*S

Total enthalpy                    ...    -93.27347244 Eh 
Total entropy correction          ...     -0.02467509 Eh    -15.48 kcal/mol
-----------------------------------------------------------------------
Final Gibbs free energy         ...    -93.29814753 Eh

For completeness - the Gibbs free energy minus the electronic energy
G-E(el)                           ...     -0.00846374 Eh     -5.31 kcal/mol



Timings for individual modules:

Sum of individual times         ...      196.133 sec (=   3.269 min)
GTO integral calculation        ...        0.447 sec (=   0.007 min)   0.2 %
SCF iterations                  ...       12.252 sec (=   0.204 min)   6.2 %
EPR/NMR calculation             ...        2.418 sec (=   0.040 min)   1.2 %
SCF Gradient evaluation         ...        3.470 sec (=   0.058 min)   1.8 %
Numerical frequency calculation ...      177.544 sec (=   2.959 min)  90.5 %
                             ****ORCA TERMINATED NORMALLY****
TOTAL RUN TIME: 0 days 0 hours 3 minutes 8 seconds 150 msec
