
                                 *****************
                                 * O   R   C   A *
                                 *****************

                                            #,                                       
                                            ###                                      
                                            ####                                     
                                            #####                                    
                                            ######                                   
                                           ########,                                 
                                     ,,################,,,,,                         
                               ,,#################################,,                 
                          ,,##########################################,,             
                       ,#########################################, ''#####,          
                    ,#############################################,,   '####,        
                  ,##################################################,,,,####,       
                ,###########''''           ''''###############################       
              ,#####''   ,,,,##########,,,,          '''####'''          '####       
            ,##' ,,,,###########################,,,                        '##       
           ' ,,###''''                  '''############,,,                           
         ,,##''                                '''############,,,,        ,,,,,,###''
      ,#''                                            '''#######################'''  
     '                                                          ''''####''''         
             ,#######,   #######,   ,#######,      ##                                
            ,#'     '#,  ##    ##  ,#'     '#,    #''#        ######   ,####,        
            ##       ##  ##   ,#'  ##            #'  '#       #        #'  '#        
            ##       ##  #######   ##           ,######,      #####,   #    #        
            '#,     ,#'  ##    ##  '#,     ,#' ,#      #,         ##   #,  ,#        
             '#######'   ##     ##  '#######'  #'      '#     #####' # '####'        



                  #######################################################
                  #                        -***-                        #
                  #          Department of theory and spectroscopy      #
                  #    Directorship and core code : Frank Neese         #
                  #        Max Planck Institute fuer Kohlenforschung    #
                  #                Kaiser Wilhelm Platz 1               #
                  #                 D-45470 Muelheim/Ruhr               #
                  #                      Germany                        #
                  #                                                     #
                  #                  All rights reserved                #
                  #                        -***-                        #
                  #######################################################


                         Program Version 5.0.3 -  RELEASE  -


 With contributions from (in alphabetic order):
   Daniel Aravena         : Magnetic Suceptibility
   Michael Atanasov       : Ab Initio Ligand Field Theory (pilot matlab implementation)
   Alexander A. Auer      : GIAO ZORA, VPT2 properties, NMR spectrum
   Ute Becker             : Parallelization
   Giovanni Bistoni       : ED, misc. LED, open-shell LED, HFLD
   Martin Brehm           : Molecular dynamics
   Dmytro Bykov           : SCF Hessian
   Vijay G. Chilkuri      : MRCI spin determinant printing, contributions to CSF-ICE
   Dipayan Datta          : RHF DLPNO-CCSD density
   Achintya Kumar Dutta   : EOM-CC, STEOM-CC
   Dmitry Ganyushin       : Spin-Orbit,Spin-Spin,Magnetic field MRCI
   Miquel Garcia          : C-PCM and meta-GGA Hessian, CC/C-PCM, Gaussian charge scheme
   Yang Guo               : DLPNO-NEVPT2, F12-NEVPT2, CIM, IAO-localization
   Andreas Hansen         : Spin unrestricted coupled pair/coupled cluster methods
   Benjamin Helmich-Paris : MC-RPA, TRAH-SCF, COSX integrals
   Lee Huntington         : MR-EOM, pCC
   Robert Izsak           : Overlap fitted RIJCOSX, COSX-SCS-MP3, EOM
   Marcus Kettner         : VPT2
   Christian Kollmar      : KDIIS, OOCD, Brueckner-CCSD(T), CCSD density, CASPT2, CASPT2-K
   Simone Kossmann        : Meta GGA functionals, TD-DFT gradient, OOMP2, MP2 Hessian
   Martin Krupicka        : Initial AUTO-CI
   Lucas Lang             : DCDCAS
   Marvin Lechner         : AUTO-CI (C++ implementation), FIC-MRCC
   Dagmar Lenk            : GEPOL surface, SMD
   Dimitrios Liakos       : Extrapolation schemes; Compound Job, initial MDCI parallelization
   Dimitrios Manganas     : Further ROCIS development; embedding schemes
   Dimitrios Pantazis     : SARC Basis sets
   Anastasios Papadopoulos: AUTO-CI, single reference methods and gradients
   Taras Petrenko         : DFT Hessian,TD-DFT gradient, ASA, ECA, R-Raman, ABS, FL, XAS/XES, NRVS
   Peter Pinski           : DLPNO-MP2, DLPNO-MP2 Gradient
   Christoph Reimann      : Effective Core Potentials
   Marius Retegan         : Local ZFS, SOC
   Christoph Riplinger    : Optimizer, TS searches, QM/MM, DLPNO-CCSD(T), (RO)-DLPNO pert. Triples
   Tobias Risthaus        : Range-separated hybrids, TD-DFT gradient, RPA, STAB
   Michael Roemelt        : Original ROCIS implementation
   Masaaki Saitow         : Open-shell DLPNO-CCSD energy and density
   Barbara Sandhoefer     : DKH picture change effects
   Avijit Sen             : IP-ROCIS
   Kantharuban Sivalingam : CASSCF convergence, NEVPT2, FIC-MRCI
   Bernardo de Souza      : ESD, SOC TD-DFT
   Georgi Stoychev        : AutoAux, RI-MP2 NMR, DLPNO-MP2 response
   Willem Van den Heuvel  : Paramagnetic NMR
   Boris Wezisla          : Elementary symmetry handling
   Frank Wennmohs         : Technical directorship


 We gratefully acknowledge several colleagues who have allowed us to
 interface, adapt or use parts of their codes:
   Stefan Grimme, W. Hujo, H. Kruse, P. Pracht,  : VdW corrections, initial TS optimization,
                  C. Bannwarth, S. Ehlert          DFT functionals, gCP, sTDA/sTD-DF
   Ed Valeev, F. Pavosevic, A. Kumar             : LibInt (2-el integral package), F12 methods
   Garnet Chan, S. Sharma, J. Yang, R. Olivares  : DMRG
   Ulf Ekstrom                                   : XCFun DFT Library
   Mihaly Kallay                                 : mrcc  (arbitrary order and MRCC methods)
   Jiri Pittner, Ondrej Demel                    : Mk-CCSD
   Frank Weinhold                                : gennbo (NPA and NBO analysis)
   Christopher J. Cramer and Donald G. Truhlar   : smd solvation model
   Lars Goerigk                                  : TD-DFT with DH, B97 family of functionals
   V. Asgeirsson, H. Jonsson                     : NEB implementation
   FAccTs GmbH                                   : IRC, NEB, NEB-TS, DLPNO-Multilevel, CI-OPT
                                                   MM, QMMM, 2- and 3-layer-ONIOM, Crystal-QMMM,
                                                   LR-CPCM, SF, NACMEs, symmetry and pop. for TD-DFT,
                                                   nearIR, NL-DFT gradient (VV10), updates on ESD,
                                                   ML-optimized integration grids
   S Lehtola, MJT Oliveira, MAL Marques          : LibXC Library
   Liviu Ungur et al                             : ANISO software


 Your calculation uses the libint2 library for the computation of 2-el integrals
 For citations please refer to: http://libint.valeyev.net

 Your ORCA version has been built with support for libXC version: 5.1.0
 For citations please refer to: https://tddft.org/programs/libxc/

 This ORCA versions uses:
   CBLAS   interface :  Fast vector & matrix operations
   LAPACKE interface :  Fast linear algebra routines
   Shared memory     :  Shared parallel matrices


SCAN-COORDS
================================================================================

----- Orbital basis set information -----
Your calculation utilizes the basis: def2-TZVP
   F. Weigend and R. Ahlrichs, Phys. Chem. Chem. Phys. 7, 3297 (2005).

----- AuxJ basis set information -----
Your calculation utilizes the auxiliary basis: def2/J
   F. Weigend, Phys. Chem. Chem. Phys. 8, 1057 (2006).

================================================================================
                                        WARNINGS
                       Please study these warnings very carefully!
================================================================================

WARNING: Gradients needed for Numerical Frequencies
  ===> : Setting RunTyp to EnGrad

WARNING: The environment variable RSH_COMMAND is not set!
  ===> : All Displacements for the Numerical Hessian or Gradient calculation
         will be started on localhost

INFO   : the flag for use of the SHARK integral package has been found!

================================================================================
                                       INPUT FILE
================================================================================
NAME = C2N2_10.inp
|  1> ! PAL5 PBE0 NumFreq
|  2> %method
|  3>         method DFT
|  4>         runtyp Energy
|  5> end
|  6> %basis
|  7>         basis "def2-TZVP"
|  8> end
|  9> %coords
| 10>         CTyp xyz
| 11>         Charge 0
| 12>         Mult 1
| 13>         Units Angs
| 14>         coords
| 15> 	#23.3
| 16> 	C      0.901163    0.213223   -0.028373
| 17> 	C      2.433052    0.225083   -0.148833
| 18> 	H      0.598361   -0.191071    0.940131
| 19> 	H      0.462121   -0.404656   -0.814888
| 20> 	H      0.504028    1.226608   -0.120863
| 21> 	H      2.763812   -0.521759   -0.874150
| 22> 	H      2.781611    1.206533   -0.477840
| 23> 	H      2.892631   -0.000931    0.815945
| 24> 	end
| 25> end
| 26> %eprnmr
| 27>         NMRShielding 1
| 28>         Nuclei = all C {shift}
| 29>         Nuclei = all H {shift}
| 30> end
| 31> 
| 32>                          ****END OF INPUT****
================================================================================

                     *******************************
                     * Energy+Gradient Calculation *
                     *******************************

---------------------------------
CARTESIAN COORDINATES (ANGSTROEM)
---------------------------------
  C      0.901163    0.213223   -0.028373
  C      2.433052    0.225083   -0.148833
  H      0.598361   -0.191071    0.940131
  H      0.462121   -0.404656   -0.814888
  H      0.504028    1.226608   -0.120863
  H      2.763812   -0.521759   -0.874150
  H      2.781611    1.206533   -0.477840
  H      2.892631   -0.000931    0.815945

----------------------------
CARTESIAN COORDINATES (A.U.)
----------------------------
  NO LB      ZA    FRAG     MASS         X           Y           Z
   0 C     6.0000    0    12.011    1.702951    0.402933   -0.053617
   1 C     6.0000    0    12.011    4.597802    0.425345   -0.281254
   2 H     1.0000    0     1.008    1.130738   -0.361072    1.776590
   3 H     1.0000    0     1.008    0.873282   -0.764689   -1.539915
   4 H     1.0000    0     1.008    0.952475    2.317953   -0.228398
   5 H     1.0000    0     1.008    5.222848   -0.985982   -1.651904
   6 H     1.0000    0     1.008    5.256483    2.280017   -0.902987
   7 H     1.0000    0     1.008    5.466280   -0.001759    1.541913

--------------------------------
INTERNAL COORDINATES (ANGSTROEM)
--------------------------------
 C      0   0   0     0.000000000000     0.00000000     0.00000000
 C      1   0   0     1.536663652047     0.00000000     0.00000000
 H      1   2   0     1.092310710218   110.40862617     0.00000000
 H      1   2   3     1.092308647604   110.40240528   240.00050523
 H      1   2   3     1.092345992143   110.40381041   120.00171473
 H      2   1   3     1.092364362771   110.40327350   109.83368168
 H      2   1   3     1.092237650436   110.40662493   229.83718084
 H      2   1   3     1.092287404817   110.40202841   349.84064339

---------------------------
INTERNAL COORDINATES (A.U.)
---------------------------
 C      0   0   0     0.000000000000     0.00000000     0.00000000
 C      1   0   0     2.903873462319     0.00000000     0.00000000
 H      1   2   0     2.064168095460   110.40862617     0.00000000
 H      1   2   3     2.064164197685   110.40240528   240.00050523
 H      1   2   3     2.064234768636   110.40381041   120.00171473
 H      2   1   3     2.064269484093   110.40327350   109.83368168
 H      2   1   3     2.064030032482   110.40662493   229.83718084
 H      2   1   3     2.064124054635   110.40202841   349.84064339

---------------------
BASIS SET INFORMATION
---------------------
There are 2 groups of distinct atoms

 Group   1 Type C   : 11s6p2d1f contracted to 5s3p2d1f pattern {62111/411/11/1}
 Group   2 Type H   : 5s1p contracted to 3s1p pattern {311/1}

Atom   0C    basis set group =>   1
Atom   1C    basis set group =>   1
Atom   2H    basis set group =>   2
Atom   3H    basis set group =>   2
Atom   4H    basis set group =>   2
Atom   5H    basis set group =>   2
Atom   6H    basis set group =>   2
Atom   7H    basis set group =>   2
---------------------------------
AUXILIARY/J BASIS SET INFORMATION
---------------------------------
There are 2 groups of distinct atoms

 Group   1 Type C   : 12s5p4d2f1g contracted to 6s4p3d1f1g pattern {711111/2111/211/2/1}
 Group   2 Type H   : 5s2p1d contracted to 3s1p1d pattern {311/2/1}

Atom   0C    basis set group =>   1
Atom   1C    basis set group =>   1
Atom   2H    basis set group =>   2
Atom   3H    basis set group =>   2
Atom   4H    basis set group =>   2
Atom   5H    basis set group =>   2
Atom   6H    basis set group =>   2
Atom   7H    basis set group =>   2


           ************************************************************
           *        Program running with 5 parallel MPI-processes     *
           *              working on a common directory               *
           ************************************************************
------------------------------------------------------------------------------
                           ORCA GTO INTEGRAL CALCULATION
                           -- RI-GTO INTEGRALS CHOSEN --
------------------------------------------------------------------------------
------------------------------------------------------------------------------
                   ___                                                        
                  /   \      - P O W E R E D   B Y -                         
                 /     \                                                     
                 |  |  |   _    _      __       _____    __    __             
                 |  |  |  | |  | |    /  \     |  _  \  |  |  /  |          
                  \  \/   | |  | |   /    \    | | | |  |  | /  /          
                 / \  \   | |__| |  /  /\  \   | |_| |  |  |/  /          
                |  |  |   |  __  | /  /__\  \  |    /   |      \           
                |  |  |   | |  | | |   __   |  |    \   |  |\   \          
                \     /   | |  | | |  |  |  |  | |\  \  |  | \   \       
                 \___/    |_|  |_| |__|  |__|  |_| \__\ |__|  \__/        
                                                                              
                      - O R C A' S   B I G   F R I E N D -                    
                                      &                                       
                       - I N T E G R A L  F E E D E R -                       
                                                                              
 v1 FN, 2020, v2 2021                                                         
------------------------------------------------------------------------------


Reading SHARK input file C2N2_10.SHARKINP.tmp ... ok
----------------------
SHARK INTEGRAL PACKAGE
----------------------

Number of atoms                             ...      8
Number of basis functions                   ...     98
Number of shells                            ...     46
Maximum angular momentum                    ...      3
Integral batch strategy                     ... SHARK/LIBINT Hybrid
RI-J (if used) integral strategy            ... SPLIT-RIJ (Revised 2003 algorithm where possible)
Printlevel                                  ...      1
Contraction scheme used                     ... SEGMENTED contraction
Coulomb Range Separation                    ... NOT USED
Exchange Range Separation                   ... NOT USED
Finite Nucleus Model                        ... NOT USED
Auxiliary Coulomb fitting basis             ... AVAILABLE
   # of basis functions in Aux-J            ...    164
   # of shells in Aux-J                     ...     60
   Maximum angular momentum in Aux-J        ...      4
Auxiliary J/K fitting basis                 ... NOT available
Auxiliary Correlation fitting basis         ... NOT available
Auxiliary 'external' fitting basis          ... NOT available
Integral threshold                          ...     2.500000e-11
Primitive cut-off                           ...     2.500000e-12
Primitive pair pre-selection threshold      ...     2.500000e-12

Calculating pre-screening integrals         ... done (  0.0 sec) Dimension = 46
Organizing shell pair data                  ... done (  0.0 sec)
Shell pair information
Total number of shell pairs                 ...      1081
Shell pairs after pre-screening             ...      1080
Total number of primitive shell pairs       ...      2988
Primitive shell pairs kept                  ...      2664
          la=0 lb=0:    405 shell pairs
          la=1 lb=0:    336 shell pairs
          la=1 lb=1:     78 shell pairs
          la=2 lb=0:    112 shell pairs
          la=2 lb=1:     48 shell pairs
          la=2 lb=2:     10 shell pairs
          la=3 lb=0:     56 shell pairs
          la=3 lb=1:     24 shell pairs
          la=3 lb=2:      8 shell pairs
          la=3 lb=3:      3 shell pairs

Calculating one electron integrals          ... done (  0.0 sec)
Calculating RI/J V-Matrix + Cholesky decomp.... done (  0.0 sec)
Calculating Nuclear repulsion               ... done (  0.0 sec) ENN=     42.176403755712 Eh

SHARK setup successfully completed in   0.1 seconds

Maximum memory used throughout the entire GTOINT-calculation: 14.6 MB


           ************************************************************
           *        Program running with 5 parallel MPI-processes     *
           *              working on a common directory               *
           ************************************************************
-------------------------------------------------------------------------------
                                 ORCA SCF
-------------------------------------------------------------------------------

------------
SCF SETTINGS
------------
Hamiltonian:
 Density Functional     Method          .... DFT(GTOs)
 Exchange Functional    Exchange        .... PBE
   PBE kappa parameter   XKappa         ....  0.804000
   PBE mue parameter    XMuePBE         ....  0.219520
 Correlation Functional Correlation     .... PBE
   PBE beta parameter  CBetaPBE         ....  0.066725
 LDA part of GGA corr.  LDAOpt          .... PW91-LDA
 Gradients option       PostSCFGGA      .... off
 Hybrid DFT is turned on
   Fraction HF Exchange ScalHFX         ....  0.250000
   Scaling of DF-GGA-X  ScalDFX         ....  0.750000
   Scaling of DF-GGA-C  ScalDFC         ....  1.000000
   Scaling of DF-LDA-C  ScalLDAC        ....  1.000000
   Perturbative correction              ....  0.000000
   Density functional embedding theory  .... OFF
   NL short-range parameter             ....  6.900000
 RI-approximation to the Coulomb term is turned on
   Number of AuxJ basis functions       .... 164
   RIJ-COSX (HFX calculated with COS-X)).... on


General Settings:
 Integral files         IntName         .... C2N2_10
 Hartree-Fock type      HFTyp           .... RHF
 Total Charge           Charge          ....    0
 Multiplicity           Mult            ....    1
 Number of Electrons    NEL             ....   18
 Basis Dimension        Dim             ....   98
 Nuclear Repulsion      ENuc            ....     42.1764037557 Eh

Convergence Acceleration:
 DIIS                   CNVDIIS         .... on
   Start iteration      DIISMaxIt       ....    12
   Startup error        DIISStart       ....  0.200000
   # of expansion vecs  DIISMaxEq       ....     5
   Bias factor          DIISBfac        ....   1.050
   Max. coefficient     DIISMaxC        ....  10.000
 Trust-Rad. Augm. Hess. CNVTRAH         .... auto
   Auto Start mean grad. ratio tolernc. ....  1.125000
   Auto Start start iteration           ....    20
   Auto Start num. interpolation iter.  ....    10
   Max. Number of Micro iterations      ....    16
   Max. Number of Macro iterations      .... Maxiter - #DIIS iter
   Number of Davidson start vectors     ....     2
   Converg. threshold I  (grad. norm)   ....   1.000e-05
   Converg. threshold II (energy diff.) ....   1.000e-08
   Grad. Scal. Fac. for Micro threshold ....   0.100
   Minimum threshold for Micro iter.    ....   0.010
   NR start threshold (gradient norm)   ....   0.001
   Initial trust radius                 ....   0.400
   Minimum AH scaling param. (alpha)    ....   1.000
   Maximum AH scaling param. (alpha)    .... 1000.000
   Orbital update algorithm             .... Taylor
   White noise on init. David. guess    .... on
   Maximum white noise                  ....   0.010
   Quad. conv. algorithm                .... NR
 SOSCF                  CNVSOSCF        .... on
   Start iteration      SOSCFMaxIt      ....   150
   Startup grad/error   SOSCFStart      ....  0.003300
 Level Shifting         CNVShift        .... on
   Level shift para.    LevelShift      ....    0.2500
   Turn off err/grad.   ShiftErr        ....    0.0010
 Zerner damping         CNVZerner       .... off
 Static damping         CNVDamp         .... on
   Fraction old density DampFac         ....    0.7000
   Max. Damping (<1)    DampMax         ....    0.9800
   Min. Damping (>=0)   DampMin         ....    0.0000
   Turn off err/grad.   DampErr         ....    0.1000
 Fernandez-Rico         CNVRico         .... off

SCF Procedure:
 Maximum # iterations   MaxIter         ....   125
 SCF integral mode      SCFMode         .... Direct
   Integral package                     .... SHARK and LIBINT hybrid scheme
 Reset frequency        DirectResetFreq ....    20
 Integral Threshold     Thresh          ....  2.500e-11 Eh
 Primitive CutOff       TCut            ....  2.500e-12 Eh

Convergence Tolerance:
 Convergence Check Mode ConvCheckMode   .... Total+1el-Energy
 Convergence forced     ConvForced      .... 0
 Energy Change          TolE            ....  1.000e-08 Eh
 1-El. energy change                    ....  1.000e-05 Eh
 Orbital Gradient       TolG            ....  1.000e-05
 Orbital Rotation angle TolX            ....  1.000e-05
 DIIS Error             TolErr          ....  5.000e-07


Diagonalization of the overlap matrix:
Smallest eigenvalue                        ... 4.788e-04
Time for diagonalization                   ...    0.001 sec
Threshold for overlap eigenvalues          ... 1.000e-08
Number of eigenvalues below threshold      ... 0
Time for construction of square roots      ...    0.005 sec
Total time needed                          ...    0.006 sec

Time for model grid setup =    0.052 sec

------------------------------
INITIAL GUESS: MODEL POTENTIAL
------------------------------
Loading Hartree-Fock densities                     ... done
Calculating cut-offs                               ... done
Initializing the effective Hamiltonian             ... done
Setting up the integral package (SHARK)            ... done
Starting the Coulomb interaction                   ... done (   0.0 sec)
Reading the grid                                   ... done
Mapping shells                                     ... done
Starting the XC term evaluation                    ... done (   0.0 sec)
  promolecular density results
     # of electrons  =     17.997227205
     EX              =    -11.973022561
     EC              =     -0.554829062
     EX+EC           =    -12.527851622
Transforming the Hamiltonian                       ... done (   0.0 sec)
Diagonalizing the Hamiltonian                      ... done (   0.0 sec)
Back transforming the eigenvectors                 ... done (   0.0 sec)
Now organizing SCF variables                       ... done
                      ------------------
                      INITIAL GUESS DONE (   0.1 sec)
                      ------------------
-------------------
DFT GRID GENERATION
-------------------

General Integration Accuracy     IntAcc      ... 4.388
Radial Grid Type                 RadialGrid  ... OptM3 with GC (2021)
Angular Grid (max. ang.)         AngularGrid ... 4 (Lebedev-302)
Angular grid pruning method      GridPruning ... 4 (adaptive)
Weight generation scheme         WeightScheme... Becke
Basis function cutoff            BFCut       ... 1.0000e-11
Integration weight cutoff        WCut        ... 1.0000e-14
Angular grids for H and He will be reduced by one unit
Partially contracted basis set               ... off
Rotationally invariant grid construction     ... off

Total number of grid points                  ...    31671
Total number of batches                      ...      499
Average number of points per batch           ...       63
Average number of grid points per atom       ...     3959
Time for grid setup =    0.107 sec

--------------------
COSX GRID GENERATION
--------------------

GRIDX 1
-------
General Integration Accuracy     IntAcc      ... 3.816
Radial Grid Type                 RadialGrid  ... OptM3 with GC (2021)
Angular Grid (max. ang.)         AngularGrid ... 1 (Lebedev-50)
Angular grid pruning method      GridPruning ... 4 (adaptive)
Weight generation scheme         WeightScheme... Becke
Basis function cutoff            BFCut       ... 1.0000e-11
Integration weight cutoff        WCut        ... 1.0000e-14
Angular grids for H and He will be reduced by one unit
Partially contracted basis set               ... on
Rotationally invariant grid construction     ... off

Total number of grid points                  ...     4114
Total number of batches                      ...       69
Average number of points per batch           ...       59
Average number of grid points per atom       ...      514
UseSFitting                                  ... on

GRIDX 2
-------
General Integration Accuracy     IntAcc      ... 4.020
Radial Grid Type                 RadialGrid  ... OptM3 with GC (2021)
Angular Grid (max. ang.)         AngularGrid ... 2 (Lebedev-110)
Angular grid pruning method      GridPruning ... 4 (adaptive)
Weight generation scheme         WeightScheme... Becke
Basis function cutoff            BFCut       ... 1.0000e-11
Integration weight cutoff        WCut        ... 1.0000e-14
Angular grids for H and He will be reduced by one unit
Partially contracted basis set               ... on
Rotationally invariant grid construction     ... off

Total number of grid points                  ...     8393
Total number of batches                      ...      136
Average number of points per batch           ...       61
Average number of grid points per atom       ...     1049
UseSFitting                                  ... on

GRIDX 3
-------
General Integration Accuracy     IntAcc      ... 4.338
Radial Grid Type                 RadialGrid  ... OptM3 with GC (2021)
Angular Grid (max. ang.)         AngularGrid ... 3 (Lebedev-194)
Angular grid pruning method      GridPruning ... 4 (adaptive)
Weight generation scheme         WeightScheme... Becke
Basis function cutoff            BFCut       ... 1.0000e-11
Integration weight cutoff        WCut        ... 1.0000e-14
Angular grids for H and He will be reduced by one unit
Partially contracted basis set               ... on
Rotationally invariant grid construction     ... off

Total number of grid points                  ...    18445
Total number of batches                      ...      292
Average number of points per batch           ...       63
Average number of grid points per atom       ...     2306
UseSFitting                                  ... on

Time for X-Grid setup             =    0.140 sec

--------------
SCF ITERATIONS
--------------
ITER       Energy         Delta-E        Max-DP      RMS-DP      [F,P]     Damp
               ***  Starting incremental Fock matrix formation  ***
  0    -79.6367420257   0.000000000000 0.03313857  0.00146213  0.1894219 0.7000
  1    -79.6870994836  -0.050357457852 0.02169764  0.00108013  0.1007971 0.7000
                               ***Turning on DIIS***
  2    -79.7081141685  -0.021014684896 0.03400225  0.00187153  0.0398267 0.0000
  3    -79.7365793393  -0.028465170762 0.01396046  0.00071039  0.0536051 0.0000
  4    -79.7453604209  -0.008781081596 0.00281369  0.00020997  0.0113066 0.0000
                      *** Initiating the SOSCF procedure ***
                           *** Shutting down DIIS ***
                      *** Re-Reading the Fockian *** 
                      *** Removing any level shift *** 
ITER      Energy       Delta-E        Grad      Rot      Max-DP    RMS-DP
  5    -79.74579403  -0.0004336086  0.000886  0.000886  0.001133  0.000081
               *** Restarting incremental Fock matrix formation ***
  6    -79.74582091  -0.0000268798  0.000329  0.000636  0.000865  0.000055
  7    -79.74582145  -0.0000005390  0.000266  0.000176  0.000223  0.000011
  8    -79.74582265  -0.0000012031  0.000033  0.000035  0.000032  0.000002
  9    -79.74582266  -0.0000000084  0.000009  0.000011  0.000009  0.000001
                 **** Energy Check signals convergence ****
              ***Rediagonalizing the Fockian in SOSCF/NRSCF***

               *****************************************************
               *                     SUCCESS                       *
               *           SCF CONVERGED AFTER  10 CYCLES          *
               *****************************************************

Old exchange energy                            =     -3.122152950 Eh
New exchange energy                            =     -3.122149680 Eh
Exchange energy change after final integration =      0.000003270 Eh
Total energy after final integration           =    -79.745819391 Eh
Final COS-X integration done in                =     0.308 sec

----------------
TOTAL SCF ENERGY
----------------

Total Energy       :          -79.74581939 Eh           -2169.99407 eV

Components:
Nuclear Repulsion  :           42.17640376 Eh            1147.67829 eV
Electronic Energy  :         -121.92222315 Eh           -3317.67236 eV
One Electron Energy:         -189.21632078 Eh           -5148.83785 eV
Two Electron Energy:           67.29409763 Eh            1831.16549 eV
Max COSX asymmetry :            0.00000101 Eh               0.00003 eV

Virial components:
Potential Energy   :         -159.02143139 Eh           -4327.19314 eV
Kinetic Energy     :           79.27561200 Eh            2157.19907 eV
Virial Ratio       :            2.00593130


DFT components:
N(Alpha)           :        9.000008530701 electrons
N(Beta)            :        9.000008530701 electrons
N(Total)           :       18.000017061402 electrons
E(X)               :       -9.304549601687 Eh       
E(C)               :       -0.561995923800 Eh       
E(XC)              :       -9.866545525487 Eh       
DFET-embed. en.    :        0.000000000000 Eh       

---------------
SCF CONVERGENCE
---------------

  Last Energy change         ...   -1.2567e-09  Tolerance :   1.0000e-08
  Last MAX-Density change    ...    6.6613e-16  Tolerance :   1.0000e-07
  Last RMS-Density change    ...    1.4525e-17  Tolerance :   5.0000e-09
  Last Orbital Gradient      ...    7.4524e-07  Tolerance :   1.0000e-05
  Last Orbital Rotation      ...    6.2750e-07  Tolerance :   1.0000e-05

             **** THE GBW FILE WAS UPDATED (C2N2_10.gbw) ****
             **** DENSITY C2N2_10.scfp WAS UPDATED ****
             **** ENERGY FILE WAS UPDATED (C2N2_10.en.tmp) ****
             **** THE GBW FILE WAS UPDATED (C2N2_10.gbw) ****
             **** DENSITY C2N2_10.scfp WAS UPDATED ****
----------------
ORBITAL ENERGIES
----------------

  NO   OCC          E(Eh)            E(eV) 
   0   2.0000     -10.206179      -277.7242 
   1   2.0000     -10.205961      -277.7183 
   2   2.0000      -0.773107       -21.0373 
   3   2.0000      -0.630642       -17.1606 
   4   2.0000      -0.449182       -12.2229 
   5   2.0000      -0.449176       -12.2227 
   6   2.0000      -0.373540       -10.1645 
   7   2.0000      -0.351292        -9.5591 
   8   2.0000      -0.351276        -9.5587 
   9   0.0000       0.053251         1.4490 
  10   0.0000       0.089555         2.4369 
  11   0.0000       0.102203         2.7811 
  12   0.0000       0.102216         2.7814 
  13   0.0000       0.178840         4.8665 
  14   0.0000       0.178849         4.8667 
  15   0.0000       0.201906         5.4941 
  16   0.0000       0.209442         5.6992 
  17   0.0000       0.224125         6.0987 
  18   0.0000       0.224134         6.0990 
  19   0.0000       0.282249         7.6804 
  20   0.0000       0.282258         7.6806 
  21   0.0000       0.397241        10.8095 
  22   0.0000       0.426494        11.6055 
  23   0.0000       0.437882        11.9154 
  24   0.0000       0.437891        11.9156 
  25   0.0000       0.464042        12.6272 
  26   0.0000       0.526267        14.3205 
  27   0.0000       0.526287        14.3210 
  28   0.0000       0.540126        14.6976 
  29   0.0000       0.596978        16.2446 
  30   0.0000       0.596999        16.2452 
  31   0.0000       0.639460        17.4006 
  32   0.0000       0.920005        25.0346 
  33   0.0000       0.920017        25.0349 
  34   0.0000       0.934901        25.4400 
  35   0.0000       0.991349        26.9760 
  36   0.0000       0.991355        26.9761 
  37   0.0000       1.061415        28.8826 
  38   0.0000       1.061429        28.8830 
  39   0.0000       1.118160        30.4267 
  40   0.0000       1.474755        40.1301 
  41   0.0000       1.476968        40.1903 
  42   0.0000       1.477049        40.1926 
  43   0.0000       1.544173        42.0191 
  44   0.0000       1.551951        42.2307 
  45   0.0000       1.567587        42.6562 
  46   0.0000       1.644437        44.7474 
  47   0.0000       1.644443        44.7476 
  48   0.0000       1.693587        46.0848 
  49   0.0000       1.774302        48.2812 
  50   0.0000       1.797738        48.9189 
  51   0.0000       1.797756        48.9194 
  52   0.0000       1.972319        53.6695 
  53   0.0000       1.972348        53.6703 
  54   0.0000       1.980654        53.8963 
  55   0.0000       2.166972        58.9663 
  56   0.0000       2.167007        58.9673 
  57   0.0000       2.177775        59.2603 
  58   0.0000       2.235585        60.8334 
  59   0.0000       2.313263        62.9471 
  60   0.0000       2.313305        62.9482 
  61   0.0000       2.419013        65.8247 
  62   0.0000       2.419040        65.8254 
  63   0.0000       2.535135        68.9845 
  64   0.0000       2.535174        68.9856 
  65   0.0000       2.580856        70.2287 
  66   0.0000       2.580896        70.2298 
  67   0.0000       2.690017        73.1991 
  68   0.0000       2.874566        78.2209 
  69   0.0000       2.874624        78.2225 
  70   0.0000       2.895399        78.7878 
  71   0.0000       2.931680        79.7751 
  72   0.0000       2.931694        79.7754 
  73   0.0000       3.037524        82.6552 
  74   0.0000       3.086478        83.9873 
  75   0.0000       3.222566        87.6905 
  76   0.0000       3.229552        87.8806 
  77   0.0000       3.229594        87.8817 
  78   0.0000       3.257506        88.6412 
  79   0.0000       3.257551        88.6425 
  80   0.0000       3.336375        90.7874 
  81   0.0000       3.472585        94.4938 
  82   0.0000       3.537929        96.2720 
  83   0.0000       3.537967        96.2730 
  84   0.0000       3.816965       103.8649 
  85   0.0000       3.816993       103.8657 
  86   0.0000       3.826978       104.1374 
  87   0.0000       3.926497       106.8454 
  88   0.0000       3.926524       106.8461 
  89   0.0000       4.119804       112.1056 
  90   0.0000       4.119841       112.1066 
  91   0.0000       4.417209       120.1984 
  92   0.0000       4.459197       121.3409 
  93   0.0000       4.596146       125.0675 
  94   0.0000       4.596219       125.0695 
  95   0.0000       4.824658       131.2856 
  96   0.0000      22.265388       605.8720 
  97   0.0000      22.421421       610.1179 

                    ********************************
                    * MULLIKEN POPULATION ANALYSIS *
                    ********************************

-----------------------
MULLIKEN ATOMIC CHARGES
-----------------------
   0 C :   -0.347569
   1 C :   -0.346866
   2 H :    0.115786
   3 H :    0.115795
   4 H :    0.115753
   5 H :    0.115646
   6 H :    0.115728
   7 H :    0.115725
Sum of atomic charges:   -0.0000000

--------------------------------
MULLIKEN REDUCED ORBITAL CHARGES
--------------------------------
  0 C s       :     3.228457  s :     3.228457
      pz      :     1.054554  p :     3.060299
      px      :     0.950642
      py      :     1.055104
      dz2     :     0.005813  d :     0.055352
      dxz     :     0.018228
      dyz     :     0.004299
      dx2y2   :     0.008524
      dxy     :     0.018488
      f0      :     0.000429  f :     0.003460
      f+1     :     0.000357
      f-1     :     0.000596
      f+2     :     0.000526
      f-2     :     0.000041
      f+3     :     0.000712
      f-3     :     0.000799
  1 C s       :     3.228065  s :     3.228065
      pz      :     1.054382  p :     3.059984
      px      :     0.950550
      py      :     1.055052
      dz2     :     0.004962  d :     0.055357
      dxz     :     0.018874
      dyz     :     0.004786
      dx2y2   :     0.008894
      dxy     :     0.017840
      f0      :     0.000441  f :     0.003459
      f+1     :     0.000510
      f-1     :     0.000295
      f+2     :     0.000786
      f-2     :    -0.000005
      f+3     :     0.000599
      f-3     :     0.000832
  2 H s       :     0.863067  s :     0.863067
      pz      :     0.010414  p :     0.021147
      px      :     0.005226
      py      :     0.005507
  3 H s       :     0.863059  s :     0.863059
      pz      :     0.008311  p :     0.021146
      px      :     0.005940
      py      :     0.006896
  4 H s       :     0.863100  s :     0.863100
      pz      :     0.004541  p :     0.021147
      px      :     0.005702
      py      :     0.010904
  5 H s       :     0.863206  s :     0.863206
      pz      :     0.007833  p :     0.021148
      px      :     0.005351
      py      :     0.007964
  6 H s       :     0.863122  s :     0.863122
      pz      :     0.005175  p :     0.021149
      px      :     0.005447
      py      :     0.010528
  7 H s       :     0.863127  s :     0.863127
      pz      :     0.010260  p :     0.021147
      px      :     0.006071
      py      :     0.004817


                     *******************************
                     * LOEWDIN POPULATION ANALYSIS *
                     *******************************

----------------------
LOEWDIN ATOMIC CHARGES
----------------------
   0 C :   -0.350086
   1 C :   -0.350044
   2 H :    0.116691
   3 H :    0.116697
   4 H :    0.116698
   5 H :    0.116696
   6 H :    0.116669
   7 H :    0.116678

-------------------------------
LOEWDIN REDUCED ORBITAL CHARGES
-------------------------------
  0 C s       :     2.842457  s :     2.842457
      pz      :     1.079810  p :     3.221447
      px      :     1.061729
      py      :     1.079908
      dz2     :     0.036859  d :     0.260947
      dxz     :     0.072477
      dyz     :     0.025314
      dx2y2   :     0.050156
      dxy     :     0.076141
      f0      :     0.002669  f :     0.025234
      f+1     :     0.003221
      f-1     :     0.002741
      f+2     :     0.003982
      f-2     :     0.002892
      f+3     :     0.004143
      f-3     :     0.005585
  1 C s       :     2.842438  s :     2.842438
      pz      :     1.079785  p :     3.221415
      px      :     1.061733
      py      :     1.079897
      dz2     :     0.029640  d :     0.260957
      dxz     :     0.077909
      dyz     :     0.029513
      dx2y2   :     0.053266
      dxy     :     0.070628
      f0      :     0.003023  f :     0.025235
      f+1     :     0.004128
      f-1     :     0.001571
      f+2     :     0.004330
      f-2     :     0.002327
      f+3     :     0.003779
      f-3     :     0.006076
  2 H s       :     0.821386  s :     0.821386
      pz      :     0.030754  p :     0.061922
      px      :     0.014429
      py      :     0.016740
  3 H s       :     0.821380  s :     0.821380
      pz      :     0.025062  p :     0.061923
      px      :     0.016186
      py      :     0.020675
  4 H s       :     0.821386  s :     0.821386
      pz      :     0.013897  p :     0.061916
      px      :     0.015576
      py      :     0.032443
  5 H s       :     0.821392  s :     0.821392
      pz      :     0.023261  p :     0.061912
      px      :     0.014730
      py      :     0.023921
  6 H s       :     0.821397  s :     0.821397
      pz      :     0.015714  p :     0.061933
      px      :     0.014952
      py      :     0.031267
  7 H s       :     0.821397  s :     0.821397
      pz      :     0.030739  p :     0.061925
      px      :     0.016513
      py      :     0.014674


                      *****************************
                      * MAYER POPULATION ANALYSIS *
                      *****************************

  NA   - Mulliken gross atomic population
  ZA   - Total nuclear charge
  QA   - Mulliken gross atomic charge
  VA   - Mayer's total valence
  BVA  - Mayer's bonded valence
  FA   - Mayer's free valence

  ATOM       NA         ZA         QA         VA         BVA        FA
  0 C      6.3476     6.0000    -0.3476     3.8979     3.8979    -0.0000
  1 C      6.3469     6.0000    -0.3469     3.8979     3.8979    -0.0000
  2 H      0.8842     1.0000     0.1158     0.9713     0.9713    -0.0000
  3 H      0.8842     1.0000     0.1158     0.9713     0.9713     0.0000
  4 H      0.8842     1.0000     0.1158     0.9713     0.9713     0.0000
  5 H      0.8844     1.0000     0.1156     0.9713     0.9713     0.0000
  6 H      0.8843     1.0000     0.1157     0.9713     0.9713     0.0000
  7 H      0.8843     1.0000     0.1157     0.9713     0.9713    -0.0000

  Mayer bond orders larger than 0.100000
B(  0-C ,  1-C ) :   0.9816 B(  0-C ,  2-H ) :   0.9764 B(  0-C ,  3-H ) :   0.9764 
B(  0-C ,  4-H ) :   0.9764 B(  1-C ,  5-H ) :   0.9764 B(  1-C ,  6-H ) :   0.9764 
B(  1-C ,  7-H ) :   0.9764 

-------
TIMINGS
-------

Total SCF time: 0 days 0 hours 0 min 3 sec 

Total time                  ....       3.327 sec
Sum of individual times     ....       3.155 sec  ( 94.8%)

Fock matrix formation       ....       2.726 sec  ( 81.9%)
  Split-RI-J                ....       0.238 sec  (  8.7% of F)
  Chain of spheres X        ....       1.619 sec  ( 59.4% of F)
  XC integration            ....       0.623 sec  ( 22.9% of F)
    Basis function eval.    ....       0.136 sec  ( 21.8% of XC)
    Density eval.           ....       0.099 sec  ( 15.9% of XC)
    XC-Functional eval.     ....       0.032 sec  (  5.1% of XC)
    XC-Potential eval.      ....       0.125 sec  ( 20.1% of XC)
Diagonalization             ....       0.029 sec  (  0.9%)
Density matrix formation    ....       0.001 sec  (  0.0%)
Population analysis         ....       0.017 sec  (  0.5%)
Initial guess               ....       0.039 sec  (  1.2%)
Orbital Transformation      ....       0.000 sec  (  0.0%)
Orbital Orthonormalization  ....       0.000 sec  (  0.0%)
DIIS solution               ....       0.021 sec  (  0.6%)
SOSCF solution              ....       0.023 sec  (  0.7%)
Grid generation             ....       0.299 sec  (  9.0%)

Maximum memory used throughout the entire SCF-calculation: 60.4 MB

-------------------------   --------------------
FINAL SINGLE POINT ENERGY       -79.745819391194
-------------------------   --------------------



           ************************************************************
           *        Program running with 5 parallel MPI-processes     *
           *              working on a common directory               *
           ************************************************************
------------------------------------------------------------------------------
                         ORCA SCF GRADIENT CALCULATION
------------------------------------------------------------------------------

 ... reading COSX grid (gridx3)
Gradient of the Kohn-Sham DFT energy:
Kohn-Sham wavefunction type      ... RKS
Hartree-Fock exchange scaling    ...    0.250
Number of operators              ...    1
Number of atoms                  ...    8
Basis set dimensions             ...   98
Integral neglect threshold       ... 2.5e-11
Integral primitive cutoff        ... 2.5e-12
SHARK Integral package           ... ON

Nuc. rep. gradient       (SHARK) ... done (  0.0 sec)
HCore & Overlap gradient (SHARK) ... done (  0.0 sec)
RI-J gradient            (SHARK) ... done (  0.1 sec)
COSX-gradient                    ... done (  0.4 sec)
Exchange-correlation gradient    ... done

------------------
CARTESIAN GRADIENT
------------------

   1   C   :   -0.005817750   -0.000095305    0.000438284
   2   C   :    0.005872153    0.000060114   -0.000442128
   3   H   :    0.003026691   -0.000308788    0.002099737
   4   H   :    0.002762320   -0.001833121   -0.001679213
   5   H   :    0.002743542    0.002237507   -0.001074710
   6   H   :   -0.002990013   -0.001303245   -0.001777354
   7   H   :   -0.002893741    0.002294746    0.000159908
   8   H   :   -0.002696246   -0.001112336    0.002279571

Difference to translation invariance:
           :    0.0000069547   -0.0000604283    0.0000040955

Difference to rotation invariance:
           :    0.0000193473   -0.0000641865   -0.0001922512

Norm of the cartesian gradient     ...    0.0122906057
RMS gradient                       ...    0.0025088094
MAX gradient                       ...    0.0058721526

-------
TIMINGS
-------

Total SCF gradient time            ...        0.803 sec

One electron gradient       ....       0.013 sec  (  1.6%)
RI-J Coulomb gradient       ....       0.073 sec  (  9.1%)
COSX gradient               ....       0.368 sec  ( 45.8%)
XC gradient                 ....       0.222 sec  ( 27.6%)

Maximum memory used throughout the entire SCFGRAD-calculation: 35.2 MB

                            ***************************************
                            *     ORCA property calculations      *
                            ***************************************

                                    ---------------------
                                    Active property flags
                                    ---------------------
   (+) Dipole Moment
   (+) Chemical Shifts
   (+) Nuclear properties (Hyperfine,Quadrupole)


------------------------------------------------------------------------------
                       ORCA ELECTRIC PROPERTIES CALCULATION
------------------------------------------------------------------------------

Dipole Moment Calculation                       ... on
Quadrupole Moment Calculation                   ... off
Polarizability Calculation                      ... off
GBWName                                         ... C2N2_10.gbw
Electron density                                ... C2N2_10.scfp
The origin for moment calculation is the CENTER OF MASS  = ( 3.150371,  0.414127 -0.167438)

-------------
DIPOLE MOMENT
-------------
                                X             Y             Z
Electronic contribution:      0.00003       0.00011      -0.00001
Nuclear contribution   :     -0.00006      -0.00015      -0.00004
                        -----------------------------------------
Total Dipole Moment    :     -0.00004      -0.00003      -0.00005
                        -----------------------------------------
Magnitude (a.u.)       :      0.00007
Magnitude (Debye)      :      0.00017



--------------------
Rotational spectrum 
--------------------
 
Rotational constants in cm-1:     2.659369     0.665332     0.665327 
Rotational constants in MHz : 79725.877513 19946.158855 19946.006856 

 Dipole components along the rotational axes: 
x,y,z [a.u.] :     0.000032     0.000044    -0.000041 
x,y,z [Debye]:     0.000082     0.000112    -0.000103 

 


           ************************************************************
           *        Program running with 5 parallel MPI-processes     *
           *              working on a common directory               *
           ************************************************************
------------------------------------------------------------------------------
                                ORCA EPR/NMR CALCULATION
------------------------------------------------------------------------------

GBWName                      ... C2N2_10.gbw
Electron density             ... C2N2_10.scfp
Spin density                 ... C2N2_10.scfr
Treatment of gauge           ... GIAO (approximations 1/2el = 0,0)
Details of the CP(SCF) procedure:
       Solver   = POPLE   
       MaxIter  =    64   
       Tolerance=    1.000e-04
       COSX Grid=     1   
       Op-0     =   0-  8 =>   9- 97
Multiplicity                 ... 1
g-tensor                     ... 0
NMR chemical shifts          ... 1
NMR spin-spin couplings      ... 0
NMR spectrum                 ... 0
Number of nuclei for epr/nmr ... 8
   Nucleus:   0C 
       Hyperfine : Isotope=   13 I=   0.500 P= 134.190
       Quadrupole: Isotope=   13 I=   0.500 Q=   0.000
       Spin-Orbit: Zeff=   3.600
       Nuclear Spin-Spin: Gn=   0.000
       EPRNMR Input: 
       rho(0)=N f(grad)=N a(iso)=N a(dip)=N a(orb)=N sigma(nmr)=Y spin-spin(nmr)=all-N,DSO-N,PSO-N,FC-N,SD-N
   Nucleus:   1C 
       Hyperfine : Isotope=   13 I=   0.500 P= 134.190
       Quadrupole: Isotope=   13 I=   0.500 Q=   0.000
       Spin-Orbit: Zeff=   3.600
       Nuclear Spin-Spin: Gn=   0.000
       EPRNMR Input: 
       rho(0)=N f(grad)=N a(iso)=N a(dip)=N a(orb)=N sigma(nmr)=Y spin-spin(nmr)=all-N,DSO-N,PSO-N,FC-N,SD-N
   Nucleus:   2H 
       Hyperfine : Isotope=    1 I=   0.500 P= 533.551
       Quadrupole: Isotope=    2 I=   1.000 Q=   0.003
       Spin-Orbit: Zeff=   1.000
       Nuclear Spin-Spin: Gn=   0.000
       EPRNMR Input: 
       rho(0)=N f(grad)=N a(iso)=N a(dip)=N a(orb)=N sigma(nmr)=Y spin-spin(nmr)=all-N,DSO-N,PSO-N,FC-N,SD-N
   Nucleus:   3H 
       Hyperfine : Isotope=    1 I=   0.500 P= 533.551
       Quadrupole: Isotope=    2 I=   1.000 Q=   0.003
       Spin-Orbit: Zeff=   1.000
       Nuclear Spin-Spin: Gn=   0.000
       EPRNMR Input: 
       rho(0)=N f(grad)=N a(iso)=N a(dip)=N a(orb)=N sigma(nmr)=Y spin-spin(nmr)=all-N,DSO-N,PSO-N,FC-N,SD-N
   Nucleus:   4H 
       Hyperfine : Isotope=    1 I=   0.500 P= 533.551
       Quadrupole: Isotope=    2 I=   1.000 Q=   0.003
       Spin-Orbit: Zeff=   1.000
       Nuclear Spin-Spin: Gn=   0.000
       EPRNMR Input: 
       rho(0)=N f(grad)=N a(iso)=N a(dip)=N a(orb)=N sigma(nmr)=Y spin-spin(nmr)=all-N,DSO-N,PSO-N,FC-N,SD-N
   Nucleus:   5H 
       Hyperfine : Isotope=    1 I=   0.500 P= 533.551
       Quadrupole: Isotope=    2 I=   1.000 Q=   0.003
       Spin-Orbit: Zeff=   1.000
       Nuclear Spin-Spin: Gn=   0.000
       EPRNMR Input: 
       rho(0)=N f(grad)=N a(iso)=N a(dip)=N a(orb)=N sigma(nmr)=Y spin-spin(nmr)=all-N,DSO-N,PSO-N,FC-N,SD-N
   Nucleus:   6H 
       Hyperfine : Isotope=    1 I=   0.500 P= 533.551
       Quadrupole: Isotope=    2 I=   1.000 Q=   0.003
       Spin-Orbit: Zeff=   1.000
       Nuclear Spin-Spin: Gn=   0.000
       EPRNMR Input: 
       rho(0)=N f(grad)=N a(iso)=N a(dip)=N a(orb)=N sigma(nmr)=Y spin-spin(nmr)=all-N,DSO-N,PSO-N,FC-N,SD-N
   Nucleus:   7H 
       Hyperfine : Isotope=    1 I=   0.500 P= 533.551
       Quadrupole: Isotope=    2 I=   1.000 Q=   0.003
       Spin-Orbit: Zeff=   1.000
       Nuclear Spin-Spin: Gn=   0.000
       EPRNMR Input: 
       rho(0)=N f(grad)=N a(iso)=N a(dip)=N a(orb)=N sigma(nmr)=Y spin-spin(nmr)=all-N,DSO-N,PSO-N,FC-N,SD-N
Forming RHS of the CP-SCF equations         ... 
Calculating right hand sides for GIAO treatment        ... 
  Entering RightHandSide GIAO. ScalHFX=    0.2500 NeedHFX=1
     -> 1-electron GIAO integrals will be done analytically
     -> RIJCOSX used in SCF. Same chosen for GIAO calculation.
     Making grid for GIAO integrations   ...

GRID GIAO
---------

General Integration Accuracy     IntAcc      ... 4.388
Radial Grid Type                 RadialGrid  ... OptM3 with GC (2021)
Angular Grid (max. ang.)         AngularGrid ... 4 (Lebedev-302)
Angular grid pruning method      GridPruning ... 4 (adaptive)
Weight generation scheme         WeightScheme... Becke
Basis function cutoff            BFCut       ... 1.0000e-11
Integration weight cutoff        WCut        ... 1.0000e-14
Angular grids for H and He will be reduced by one unit
Partially contracted basis set               ... off
Rotationally invariant grid construction     ... off

Total number of grid points                  ...    31671
Total number of batches                      ...      499
Average number of points per batch           ...       63
Average number of grid points per atom       ...     3959

  One-electron GIAO integrals (SHARK)     ... done
  Calculating G(B)[P]                     ... (RI-J: SHARK-ok) (COSX-ok) (add-J+K:ok) => dG/dB done
  DFT XC-terms                            ... done
  Extracting occupied and virtual blocks  ... 
  Operator  0  NO=   9 NV=  89 
  Transforming and RHS contribution       ... done
  Adding eps_i * S(B)_ai terms            ... done
  Projecting overlap derivatives          ... done
  Building G[dS/dB_ij] (COSX)             ... done
  Transforming to MO basis                ... done
  Summing G[dS/dB_ij] into RHS contribs.  ... done

  GIAO profiling information: 
    Total GIAO time               ...       0.8 sec
       GIAO 1-electron integrals  ...       0.0 sec (  0.7%)
       GIAO G(dS/dB) terms        ...       0.1 sec ( 10.4%)
       GIAO RI-J                  ...       0.1 sec (  6.3%)
       GIAO COSX                  ...       0.2 sec ( 23.5%)
       GIAO XC-terms              ...       0.4 sec ( 46.2%)
       Right hand side assembly   ...       0.0 sec (  0.1%)

  GIAO right hand side done


------------------------------------------------------------------------------
                           ORCA CP-SCF CALCULATION
------------------------------------------------------------------------------

Input orbitals are from        ... C2N2_10.gbw
Input Perturbation             ... C2N2_10.pin.tmp
Wavefunction output            ... C2N2_10.pout.tmp
Perturbation mode              ... Imaginary perturbation
Solver                         ... POPLE
Max. number of iterations      ... 64
Convergence tolerance          ... 1.000e-04
Integral handling              ... Direct
DFT GridXC                     ... 1
COSX GridX                     ... 1
COSX IntAccX                   ... 3.067
COSX Algorithm                 ... Auto
Number of perturbations        ... 3
Number of operators            ... 1
Orbital ranges used for CP-SCF:
 Operator 0:  Orbitals   0...  8  to   9... 97
Variables per perturbation     ... 801
DFT calculation                         ... on
XC functional terms                     ... off
Hybrid DFT                              ... on
   Exchange mixing (SCF)                ...  0.250
   Exchange mixing (CP-SCF)             ...  0.250
   GGA exch. scaling(SCF)               ...  0.750
   GGA exch. scaling (CP-SCF)           ...  0.750
   GGA corr. scaling (SCF)              ...  1.000
   GGA corr. scaling (CP-SCF)           ...  1.000

CP-SCF GRID
-----------

General Integration Accuracy     IntAcc      ... 3.467
Radial Grid Type                 RadialGrid  ... OptM3 with GC (2021)
Angular Grid (max. ang.)         AngularGrid ... 1 (Lebedev-50)
Angular grid pruning method      GridPruning ... 4 (adaptive)
Weight generation scheme         WeightScheme... Becke
Basis function cutoff            BFCut       ... 1.0000e-11
Integration weight cutoff        WCut        ... 1.0000e-14
Angular grids for H and He will be reduced by one unit
Partially contracted basis set               ... off
Rotationally invariant grid construction     ... off

Total number of grid points                  ...     4376
Total number of batches                      ...       72
Average number of points per batch           ...       60
Average number of grid points per atom       ...      547

CP-SCF GRIDX
------------

General Integration Accuracy     IntAcc      ... 3.067
Radial Grid Type                 RadialGrid  ... OptM3 with GC (2021)
Angular Grid (max. ang.)         AngularGrid ... 1 (Lebedev-50)
Angular grid pruning method      GridPruning ... 4 (adaptive)
Weight generation scheme         WeightScheme... Becke
Basis function cutoff            BFCut       ... 1.0000e-11
Integration weight cutoff        WCut        ... 1.0000e-14
Angular grids for H and He will be reduced by one unit
Partially contracted basis set               ... on
Rotationally invariant grid construction     ... off

Total number of grid points                  ...     2066
Total number of batches                      ...       37
Average number of points per batch           ...       55
Average number of grid points per atom       ...      258

Memory available               ... 1014.3 MB
Memory needed per perturbation ...   0.4 MB
Perturbations treated per batch... 3
Number of batches              ... 1
     CP-SCF ITERATION   0:   2.0188e-01 (   0.1 sec   0/  3 done)
     CP-SCF ITERATION   1:   2.2546e-03 (   0.1 sec   0/  3 done)
     CP-SCF ITERATION   2:   9.4905e-05 (   0.1 sec   3/  3 done)
                    *** THE CP-SCF HAS CONVERGED ***

Forming final perturbed densities           ... done
Transforming perturbed density to AO basis  ... done

Magnetic field perturbation calculated in  1.143 sec

---------------
CHEMICAL SHIFTS
---------------

Note: using conversion factor for au to ppm alpha^2/2 =   26.625677252 
GIAO: Analytic para- and diamagnetic shielding integrals (SHARK)       ...done
 --------------
 Nucleus   0C :
 --------------

Diamagnetic contribution to the shielding tensor (ppm) : 
           253.905         -0.413        -0.969
             0.091        242.989        -0.059
            -0.925          0.079       243.072

Paramagnetic contribution to the shielding tensor (ppm): 
           -57.696          0.472        -0.576
             0.152        -66.199         1.127
            -0.591         -1.187       -66.170

Total shielding tensor (ppm): 
           196.209          0.058        -1.546
             0.244        176.790         1.068
            -1.516         -1.108       176.901


 Diagonalized sT*s matrix:
 
 sDSO           242.989          242.994          253.983  iso=     246.655
 sPSO           -66.213          -66.200          -57.652  iso=     -63.355
        ---------------  ---------------  ---------------
 Total          176.776          176.794          196.331  iso=     183.300

 --------------
 Nucleus   1C :
 --------------

Diamagnetic contribution to the shielding tensor (ppm) : 
           253.856          0.640        -1.398
             0.167        234.831         0.133
            -1.560         -0.188       234.944

Paramagnetic contribution to the shielding tensor (ppm): 
           -57.653         -0.402        -0.112
            -0.103        -58.060        -1.235
             0.021          1.246       -58.058

Total shielding tensor (ppm): 
           196.203          0.238        -1.510
             0.065        176.772        -1.102
            -1.539          1.057       176.886


 Diagonalized sT*s matrix:
 
 sDSO           234.832          234.823          253.976  iso=     241.210
 sPSO           -58.074          -58.044          -57.652  iso=     -57.923
        ---------------  ---------------  ---------------
 Total          176.758          176.779          196.324  iso=     183.287

 --------------
 Nucleus   2H :
 --------------

Diamagnetic contribution to the shielding tensor (ppm) : 
            28.950          1.563        -4.742
             1.045         29.055        -3.881
            -3.134         -3.928        35.710

Paramagnetic contribution to the shielding tensor (ppm): 
             2.655          0.135         0.761
            -0.009         -1.741         1.027
             0.655          0.996        -2.259

Total shielding tensor (ppm): 
            31.605          1.698        -3.981
             1.035         27.314        -2.854
            -2.479         -2.931        33.451


 Diagonalized sT*s matrix:
 
 sDSO            27.300           27.657           38.758  iso=      31.238
 sPSO            -1.137            1.636           -1.844  iso=      -0.448
        ---------------  ---------------  ---------------
 Total           26.164           29.293           36.914  iso=      30.790

 --------------
 Nucleus   3H :
 --------------

Diamagnetic contribution to the shielding tensor (ppm) : 
            30.273          3.466         4.770
             2.820         30.358         4.306
             3.208          4.298        33.138

Paramagnetic contribution to the shielding tensor (ppm): 
             2.301         -0.539        -1.233
            -0.851         -1.186        -0.582
            -0.997         -0.696        -2.517

Total shielding tensor (ppm): 
            32.574          2.927         3.537
             1.969         29.172         3.724
             2.211          3.602        30.622


 Diagonalized sT*s matrix:
 
 sDSO            27.253           27.768           38.749  iso=      31.256
 sPSO            -1.091            1.525           -1.836  iso=      -0.467
        ---------------  ---------------  ---------------
 Total           26.162           29.293           36.913  iso=      30.789

 --------------
 Nucleus   4H :
 --------------

Diamagnetic contribution to the shielding tensor (ppm) : 
            29.534         -5.920         0.374
            -3.921         36.717        -0.461
             0.483         -0.262        27.259

Paramagnetic contribution to the shielding tensor (ppm): 
             2.685          1.338        -0.408
             0.969         -2.870        -0.359
            -0.693         -0.467        -0.959

Total shielding tensor (ppm): 
            32.219         -4.582        -0.034
            -2.952         33.848        -0.820
            -0.209         -0.729        26.301


 Diagonalized sT*s matrix:
 
 sDSO            27.328           27.387           38.796  iso=      31.170
 sPSO            -1.165            1.905           -1.884  iso=      -0.381
        ---------------  ---------------  ---------------
 Total           26.163           29.292           36.912  iso=      30.789

 --------------
 Nucleus   5H :
 --------------

Diamagnetic contribution to the shielding tensor (ppm) : 
            29.129         -3.349        -4.047
            -4.711         27.700         6.360
            -4.915          6.209        27.908

Paramagnetic contribution to the shielding tensor (ppm): 
             2.661          0.293         0.889
             2.867          2.525        -2.305
             2.858         -2.015         2.445

Total shielding tensor (ppm): 
            31.789         -3.057        -3.158
            -1.844         30.225         4.055
            -2.057          4.194        30.353


 Diagonalized sT*s matrix:
 
 sDSO            21.510           25.106           38.121  iso=      28.246
 sPSO             4.652            4.188           -1.210  iso=       2.543
        ---------------  ---------------  ---------------
 Total           26.162           29.294           36.911  iso=      30.789

 --------------
 Nucleus   6H :
 --------------

Diamagnetic contribution to the shielding tensor (ppm) : 
            28.985          5.289        -2.069
             6.392         32.638        -3.713
            -2.648         -3.673        22.852

Paramagnetic contribution to the shielding tensor (ppm): 
             2.892         -1.196         0.239
            -3.861          0.863         1.376
             1.323          1.253         4.145

Total shielding tensor (ppm): 
            31.877          4.093        -1.830
             2.531         33.501        -2.337
            -1.325         -2.420        26.997


 Diagonalized sT*s matrix:
 
 sDSO            21.583           24.717           38.175  iso=      28.158
 sPSO             4.583            4.578           -1.261  iso=       2.633
        ---------------  ---------------  ---------------
 Total           26.165           29.295           36.914  iso=      30.791

 --------------
 Nucleus   7H :
 --------------

Diamagnetic contribution to the shielding tensor (ppm) : 
            30.575         -1.061         5.802
            -1.623         22.205        -2.558
             7.059         -2.696        31.802

Paramagnetic contribution to the shielding tensor (ppm): 
             2.160          0.075        -1.291
             0.979          4.410         0.785
            -4.156          0.975         1.220

Total shielding tensor (ppm): 
            32.736         -0.986         4.511
            -0.644         26.616        -1.773
             2.903         -1.721        33.022


 Diagonalized sT*s matrix:
 
 sDSO            21.521           24.906           38.156  iso=      28.194
 sPSO             4.646            4.389           -1.244  iso=       2.597
        ---------------  ---------------  ---------------
 Total           26.167           29.294           36.912  iso=      30.791



--------------------------------
CHEMICAL SHIELDING SUMMARY (ppm)
--------------------------------


  Nucleus  Element    Isotropic     Anisotropy
  -------  -------  ------------   ------------
      0       C          183.300         19.546 
      1       C          183.287         19.555 
      2       H           30.790          9.186 
      3       H           30.789          9.185 
      4       H           30.789          9.185 
      5       H           30.789          9.183 
      6       H           30.791          9.184 
      7       H           30.791          9.182 



Maximum memory used throughout the entire EPRNMR-calculation: 13.0 MB

----------------------------------------------------------------------------
                           ORCA NUMERICAL FREQUENCIES
                              (5-process run)
----------------------------------------------------------------------------

Number of atoms                ... 8
Central differences            ... used
Number of displacements        ... 48
Numerical increment            ... 5.000e-03 bohr
IR-spectrum generation         ... on
Raman-spectrum generation      ... off
Surface Crossing Hessian       ... off

The output will be reduced. Please look at the following files:
SCF program output             ... >C2N2_10.lastscf
Integral program output        ... >C2N2_10.lastint
Gradient program output        ... >C2N2_10.lastgrad
Dipole moment program output   ... >C2N2_10.lastmom
AutoCI program output          ... >C2N2_10.lastautoci

	<< Calculating on displaced geometry   3 (of  48) >>
	<< Calculating on displaced geometry   5 (of  48) >>
	<< Calculating on displaced geometry   4 (of  48) >>
	<< Calculating on displaced geometry   2 (of  48) >>
	<< Calculating on displaced geometry   1 (of  48) >>
	<< Calculating on displaced geometry   6 (of  48) >>
	<< Calculating on displaced geometry   7 (of  48) >>
	<< Calculating on displaced geometry   8 (of  48) >>
	<< Calculating on displaced geometry   9 (of  48) >>
	<< Calculating on displaced geometry  10 (of  48) >>
	<< Calculating on displaced geometry  11 (of  48) >>
	<< Calculating on displaced geometry  12 (of  48) >>
	<< Calculating on displaced geometry  13 (of  48) >>
	<< Calculating on displaced geometry  14 (of  48) >>
	<< Calculating on displaced geometry  15 (of  48) >>
	<< Calculating on displaced geometry  16 (of  48) >>
	<< Calculating on displaced geometry  17 (of  48) >>
	<< Calculating on displaced geometry  18 (of  48) >>
	<< Calculating on displaced geometry  20 (of  48) >>
	<< Calculating on displaced geometry  19 (of  48) >>
	<< Calculating on displaced geometry  21 (of  48) >>
	<< Calculating on displaced geometry  22 (of  48) >>
	<< Calculating on displaced geometry  24 (of  48) >>
	<< Calculating on displaced geometry  23 (of  48) >>
	<< Calculating on displaced geometry  25 (of  48) >>
	<< Calculating on displaced geometry  26 (of  48) >>
	<< Calculating on displaced geometry  27 (of  48) >>
	<< Calculating on displaced geometry  28 (of  48) >>
	<< Calculating on displaced geometry  29 (of  48) >>
	<< Calculating on displaced geometry  30 (of  48) >>
	<< Calculating on displaced geometry  31 (of  48) >>
	<< Calculating on displaced geometry  32 (of  48) >>
	<< Calculating on displaced geometry  33 (of  48) >>
	<< Calculating on displaced geometry  34 (of  48) >>
	<< Calculating on displaced geometry  35 (of  48) >>
	<< Calculating on displaced geometry  36 (of  48) >>
	<< Calculating on displaced geometry  37 (of  48) >>
	<< Calculating on displaced geometry  38 (of  48) >>
	<< Calculating on displaced geometry  39 (of  48) >>
	<< Calculating on displaced geometry  40 (of  48) >>
	<< Calculating on displaced geometry  41 (of  48) >>
	<< Calculating on displaced geometry  42 (of  48) >>
	<< Calculating on displaced geometry  43 (of  48) >>
	<< Calculating on displaced geometry  44 (of  48) >>
	<< Calculating on displaced geometry  45 (of  48) >>
	<< Calculating on displaced geometry  46 (of  48) >>
	<< Calculating on displaced geometry  47 (of  48) >>
	<< Calculating on displaced geometry  48 (of  48) >>

-----------------------
VIBRATIONAL FREQUENCIES
-----------------------

Scaling factor for frequencies =  1.000000000 (already applied!)

   0:         0.00 cm**-1
   1:         0.00 cm**-1
   2:         0.00 cm**-1
   3:         0.00 cm**-1
   4:         0.00 cm**-1
   5:         0.00 cm**-1
   6:      -229.07 cm**-1 ***imaginary mode***
   7:       909.42 cm**-1
   8:       910.37 cm**-1
   9:      1019.38 cm**-1
  10:      1183.57 cm**-1
  11:      1183.94 cm**-1
  12:      1386.56 cm**-1
  13:      1419.36 cm**-1
  14:      1491.28 cm**-1
  15:      1491.76 cm**-1
  16:      1502.64 cm**-1
  17:      1503.32 cm**-1
  18:      3041.46 cm**-1
  19:      3047.93 cm**-1
  20:      3111.70 cm**-1
  21:      3112.05 cm**-1
  22:      3134.89 cm**-1
  23:      3135.53 cm**-1


------------
NORMAL MODES
------------

These modes are the cartesian displacements weighted by the diagonal matrix
M(i,i)=1/sqrt(m[i]) where m[i] is the mass of the displaced atom
Thus, these vectors are normalized but *not* orthogonal

                  0          1          2          3          4          5    
      0       0.000000   0.000000   0.000000   0.000000   0.000000   0.000000
      1       0.000000   0.000000   0.000000   0.000000   0.000000   0.000000
      2       0.000000   0.000000   0.000000   0.000000   0.000000   0.000000
      3       0.000000   0.000000   0.000000   0.000000   0.000000   0.000000
      4       0.000000   0.000000   0.000000   0.000000   0.000000   0.000000
      5       0.000000   0.000000   0.000000   0.000000   0.000000   0.000000
      6       0.000000   0.000000   0.000000   0.000000   0.000000   0.000000
      7       0.000000   0.000000   0.000000   0.000000   0.000000   0.000000
      8       0.000000   0.000000   0.000000   0.000000   0.000000   0.000000
      9       0.000000   0.000000   0.000000   0.000000   0.000000   0.000000
     10       0.000000   0.000000   0.000000   0.000000   0.000000   0.000000
     11       0.000000   0.000000   0.000000   0.000000   0.000000   0.000000
     12       0.000000   0.000000   0.000000   0.000000   0.000000   0.000000
     13       0.000000   0.000000   0.000000   0.000000   0.000000   0.000000
     14       0.000000   0.000000   0.000000   0.000000   0.000000   0.000000
     15       0.000000   0.000000   0.000000   0.000000   0.000000   0.000000
     16       0.000000   0.000000   0.000000   0.000000   0.000000   0.000000
     17       0.000000   0.000000   0.000000   0.000000   0.000000   0.000000
     18       0.000000   0.000000   0.000000   0.000000   0.000000   0.000000
     19       0.000000   0.000000   0.000000   0.000000   0.000000   0.000000
     20       0.000000   0.000000   0.000000   0.000000   0.000000   0.000000
     21       0.000000   0.000000   0.000000   0.000000   0.000000   0.000000
     22       0.000000   0.000000   0.000000   0.000000   0.000000   0.000000
     23       0.000000   0.000000   0.000000   0.000000   0.000000   0.000000
                  6          7          8          9         10         11    
      0       0.004233  -0.003256  -0.002170   0.365039   0.009933   0.005210
      1       0.000028   0.030531  -0.037101   0.002550  -0.073015   0.122820
      2      -0.000537  -0.037089  -0.030643  -0.028725   0.122488   0.072834
      3      -0.004238  -0.002482  -0.002778  -0.364980  -0.010051  -0.005045
      4      -0.000066   0.038391  -0.028850  -0.002616   0.076894  -0.120434
      5       0.000333  -0.028731  -0.038189   0.028606  -0.120103  -0.076825
      6      -0.000279   0.480696   0.186514   0.347220  -0.493274  -0.049459
      7      -0.375342  -0.128831   0.178921   0.029881   0.044051  -0.246262
      8      -0.158587   0.054187   0.120923  -0.029943   0.003766  -0.099457
      9      -0.014012  -0.070426  -0.490840   0.349259   0.192883   0.448738
     10       0.324435  -0.172048   0.108924  -0.006438   0.182795  -0.106777
     11      -0.246143   0.161435   0.135972  -0.004190  -0.186210  -0.006089
     12       0.040086  -0.376818   0.334131   0.344721   0.266737  -0.416773
     13       0.051391  -0.100463   0.114883  -0.013745   0.000312  -0.067975
     14       0.404541   0.186555   0.144478  -0.047440  -0.238569  -0.121605
     15       0.017552  -0.039120   0.509427  -0.349355   0.083527   0.488131
     16      -0.279336  -0.166754   0.098687   0.021508  -0.179715   0.070918
     17       0.297160   0.164640   0.073377   0.020079   0.188868  -0.035257
     18      -0.038554   0.472952  -0.192014  -0.343450   0.405229  -0.288732
     19      -0.117943  -0.094290   0.120334  -0.008979   0.010606   0.083934
     20      -0.388876   0.097941   0.198101   0.053283   0.145216   0.213867
     21      -0.004736  -0.398910  -0.288262  -0.349098  -0.453704  -0.183866
     22       0.397249  -0.158864   0.164105  -0.021445  -0.104263   0.237739
     23       0.094329   0.119532   0.147339   0.009634   0.058521   0.096101
                 12         13         14         15         16         17    
      0      -0.093822   0.086870   0.001307  -0.000695  -0.003448   0.001634
      1      -0.000409   0.000678  -0.010041  -0.017371   0.025477   0.041869
      2       0.007321  -0.006828   0.019034  -0.010653  -0.040833   0.025095
      3      -0.092675  -0.088147  -0.001403  -0.000485  -0.003638   0.000948
      4      -0.001141  -0.000681  -0.002435   0.020776   0.018768   0.044971
      5       0.007263   0.006895  -0.018681  -0.003409  -0.045200   0.019582
      6       0.384929  -0.380890   0.306036   0.045490  -0.235724   0.038055
      7      -0.060251   0.053686  -0.082109   0.438114  -0.057136  -0.468589
      8       0.118582  -0.118785   0.068810   0.192854  -0.131133  -0.180880
      9       0.365111  -0.360840  -0.201425   0.213772   0.086439  -0.206777
     10      -0.095073   0.096239   0.366320   0.155744  -0.403511  -0.070738
     11      -0.157895   0.153082  -0.175518  -0.251300   0.252353   0.209032
     12       0.369066  -0.364096  -0.146186  -0.249661   0.189657   0.150600
     13       0.163098  -0.159116  -0.102802  -0.078936   0.124379   0.053777
     14      -0.047399   0.052057  -0.429475   0.246684   0.341954  -0.351464
     15       0.375922   0.381751  -0.148070   0.259404  -0.078069   0.235979
     16       0.120335   0.116841  -0.299486  -0.147857  -0.359691  -0.045944
     17       0.078305   0.083943   0.232256   0.272740   0.321215   0.198699
     18       0.371957   0.377468  -0.087126  -0.284940  -0.109709  -0.215127
     19      -0.149474  -0.151607   0.167625   0.054054   0.192773  -0.004617
     20       0.017842   0.013543   0.413364  -0.164763   0.390313  -0.314416
     21       0.355255   0.361826   0.277910   0.029998   0.231846  -0.033493
     22       0.039837   0.043992   0.099105  -0.461694  -0.024021  -0.498643
     23      -0.183222  -0.184632  -0.113639  -0.128660  -0.149562  -0.093322
                 18         19         20         21         22         23    
      0      -0.033861   0.034584  -0.002322  -0.004740  -0.001920  -0.004890
      1      -0.000191  -0.000101  -0.055618   0.034819  -0.060413   0.026618
      2       0.002808  -0.003001  -0.031342  -0.056480  -0.029873  -0.059353
      3      -0.032826  -0.035537   0.002996   0.004622  -0.002062  -0.004908
      4       0.000217   0.000561   0.056526  -0.033302  -0.058066   0.031288
      5       0.002926   0.003401   0.036443   0.055311  -0.027756  -0.058612
      6       0.105275  -0.101672  -0.016993  -0.157557  -0.009470  -0.156186
      7       0.154492  -0.149828  -0.034279  -0.212531  -0.026896  -0.209989
      8      -0.369751   0.359424   0.047056   0.511577   0.023992   0.504432
      9       0.156597  -0.150473   0.205920   0.084523   0.210515   0.109595
     10       0.235406  -0.227836   0.287655   0.132266   0.292799   0.167034
     11       0.300464  -0.289530   0.375284   0.147388   0.382796   0.190602
     12       0.141204  -0.137613  -0.161432   0.130027  -0.177919   0.104896
     13      -0.387565   0.379098   0.414417  -0.337713   0.454044  -0.274002
     14       0.035841  -0.035934  -0.045658   0.019289  -0.050671   0.012176
     15       0.113935   0.117768   0.171859   0.036333  -0.159667  -0.045659
     16      -0.280573  -0.291022  -0.391827  -0.089038   0.360512   0.111981
     17      -0.271813  -0.282570  -0.382703  -0.067679   0.356953   0.088538
     18       0.118068   0.120366  -0.121015   0.133435   0.131059  -0.130952
     19       0.361314   0.370282  -0.343232   0.381746   0.371953  -0.372054
     20      -0.120168  -0.122519   0.127075  -0.118920  -0.135163   0.112766
     21       0.159540   0.162976  -0.086364  -0.225353   0.052934   0.235065
     22      -0.083386  -0.086172   0.056448   0.107186  -0.040649  -0.112959
     23       0.357108   0.366364  -0.181834  -0.477716   0.108779   0.497121


-----------
IR SPECTRUM
-----------

 Mode   freq       eps      Int      T**2         TX        TY        TZ
       cm**-1   L/(mol*cm) km/mol    a.u.
----------------------------------------------------------------------------
  7:    909.42   0.000747    3.78  0.000256  ( 0.001131 -0.011191  0.011397)
  8:    910.37   0.000883    4.46  0.000303  ( 0.000974  0.011943  0.012614)
  9:   1019.38   0.000000    0.00  0.000000  (-0.000013  0.000086  0.000053)
 10:   1183.57   0.000001    0.01  0.000000  (-0.000032  0.000600  0.000002)
 11:   1183.94   0.000005    0.03  0.000001  ( 0.000033  0.000732 -0.000893)
 12:   1386.56   0.000724    3.66  0.000163  ( 0.012734  0.000173 -0.000814)
 13:   1419.36   0.000001    0.01  0.000000  ( 0.000094  0.000429  0.000247)
 14:   1491.28   0.000036    0.18  0.000007  (-0.000130  0.002488 -0.001136)
 15:   1491.76   0.000045    0.23  0.000009  (-0.000011 -0.001247  0.002789)
 16:   1502.64   0.002328   11.76  0.000483  ( 0.001873 -0.008850  0.020040)
 17:   1503.32   0.002455   12.41  0.000510  (-0.000680 -0.019729 -0.010954)
 18:   3041.46   0.011060   55.89  0.001135  (-0.033622 -0.000376  0.002051)
 19:   3047.93   0.000009    0.04  0.000001  (-0.000471 -0.000758 -0.000280)
 20:   3111.70   0.000001    0.00  0.000000  ( 0.000233  0.000178  0.000094)
 21:   3112.05   0.000004    0.02  0.000000  (-0.000000  0.000601  0.000199)
 22:   3134.89   0.008715   44.04  0.000868  (-0.001063 -0.026468 -0.012879)
 23:   3135.53   0.009109   46.03  0.000907  (-0.002268  0.013299 -0.026918)

* The epsilon (eps) is given for a Dirac delta lineshape.
** The dipole moment derivative (T) already includes vibrational overlap.

The first frequency considered to be a vibration is 7
The total number of vibrations considered is 17


--------------------------
THERMOCHEMISTRY AT 298.15K
--------------------------

Temperature         ... 298.15 K
Pressure            ... 1.00 atm
Total Mass          ... 30.07 AMU

Throughout the following assumptions are being made:
  (1) The electronic state is orbitally nondegenerate
  (2) There are no thermally accessible electronically excited states
  (3) Hindered rotations indicated by low frequency modes are not
      treated as such but are treated as vibrations and this may
      cause some error
  (4) All equations used are the standard statistical mechanics
      equations for an ideal gas
  (5) All vibrations are strictly harmonic

freq.     909.42  E(vib)   ...       0.03 
freq.     910.37  E(vib)   ...       0.03 
freq.    1019.38  E(vib)   ...       0.02 
freq.    1183.57  E(vib)   ...       0.01 
freq.    1183.94  E(vib)   ...       0.01 
freq.    1386.56  E(vib)   ...       0.00 
freq.    1419.36  E(vib)   ...       0.00 
freq.    1491.28  E(vib)   ...       0.00 
freq.    1491.76  E(vib)   ...       0.00 
freq.    1502.64  E(vib)   ...       0.00 
freq.    1503.32  E(vib)   ...       0.00 
freq.    3041.46  E(vib)   ...       0.00 
freq.    3047.93  E(vib)   ...       0.00 
freq.    3111.70  E(vib)   ...       0.00 
freq.    3112.05  E(vib)   ...       0.00 
freq.    3134.89  E(vib)   ...       0.00 
freq.    3135.53  E(vib)   ...       0.00 

------------
INNER ENERGY
------------

The inner energy is: U= E(el) + E(ZPE) + E(vib) + E(rot) + E(trans)
    E(el)   - is the total energy from the electronic structure calculation
              = E(kin-el) + E(nuc-el) + E(el-el) + E(nuc-nuc)
    E(ZPE)  - the the zero temperature vibrational energy from the frequency calculation
    E(vib)  - the the finite temperature correction to E(ZPE) due to population
              of excited vibrational states
    E(rot)  - is the rotational thermal energy
    E(trans)- is the translational thermal energy

Summary of contributions to the inner energy U:
Electronic energy                ...    -79.74581939 Eh
Zero point energy                ...      0.07423446 Eh      46.58 kcal/mol
Thermal vibrational correction   ...      0.00020863 Eh       0.13 kcal/mol
Thermal rotational correction    ...      0.00141627 Eh       0.89 kcal/mol
Thermal translational correction ...      0.00141627 Eh       0.89 kcal/mol
-----------------------------------------------------------------------
Total thermal energy                    -79.66854377 Eh


Summary of corrections to the electronic energy:
(perhaps to be used in another calculation)
Total thermal correction                  0.00304117 Eh       1.91 kcal/mol
Non-thermal (ZPE) correction              0.07423446 Eh      46.58 kcal/mol
-----------------------------------------------------------------------
Total correction                          0.07727563 Eh      48.49 kcal/mol


--------
ENTHALPY
--------

The enthalpy is H = U + kB*T
                kB is Boltzmann's constant
Total free energy                 ...    -79.66854377 Eh 
Thermal Enthalpy correction       ...      0.00094421 Eh       0.59 kcal/mol
-----------------------------------------------------------------------
Total Enthalpy                    ...    -79.66759956 Eh


Note: Rotational entropy computed according to Herzberg 
Infrared and Raman Spectra, Chapter V,1, Van Nostrand Reinhold, 1945 
Point Group:  D3, Symmetry Number:   6  
Rotational constants in cm-1:     2.659369     0.665332     0.665327 

Vibrational entropy computed according to the QRRHO of S. Grimme
Chem.Eur.J. 2012 18 9955


-------
ENTROPY
-------

The entropy contributions are T*S = T*(S(el)+S(vib)+S(rot)+S(trans))
     S(el)   - electronic entropy
     S(vib)  - vibrational entropy
     S(rot)  - rotational entropy
     S(trans)- translational entropy
The entropies will be listed as multiplied by the temperature to get
units of energy

Electronic entropy                ...      0.00000000 Eh      0.00 kcal/mol
Vibrational entropy               ...      0.00025039 Eh      0.16 kcal/mol
Rotational entropy                ...      0.00774205 Eh      4.86 kcal/mol
Translational entropy             ...      0.01716939 Eh     10.77 kcal/mol
-----------------------------------------------------------------------
Final entropy term                ...      0.02516183 Eh     15.79 kcal/mol

In case the symmetry of your molecule has not been determined correctly
or in case you have a reason to use a different symmetry number we print 
out the resulting rotational entropy values for sn=1,12 :
 --------------------------------------------------------
|  sn= 1 | S(rot)=       0.00943379 Eh      5.92 kcal/mol|
|  sn= 2 | S(rot)=       0.00877934 Eh      5.51 kcal/mol|
|  sn= 3 | S(rot)=       0.00839650 Eh      5.27 kcal/mol|
|  sn= 4 | S(rot)=       0.00812488 Eh      5.10 kcal/mol|
|  sn= 5 | S(rot)=       0.00791419 Eh      4.97 kcal/mol|
|  sn= 6 | S(rot)=       0.00774205 Eh      4.86 kcal/mol|
|  sn= 7 | S(rot)=       0.00759650 Eh      4.77 kcal/mol|
|  sn= 8 | S(rot)=       0.00747042 Eh      4.69 kcal/mol|
|  sn= 9 | S(rot)=       0.00735921 Eh      4.62 kcal/mol|
|  sn=10 | S(rot)=       0.00725973 Eh      4.56 kcal/mol|
|  sn=11 | S(rot)=       0.00716974 Eh      4.50 kcal/mol|
|  sn=12 | S(rot)=       0.00708759 Eh      4.45 kcal/mol|
 --------------------------------------------------------


-------------------
GIBBS FREE ENERGY
-------------------

The Gibbs free energy is G = H - T*S

Total enthalpy                    ...    -79.66759956 Eh 
Total entropy correction          ...     -0.02516183 Eh    -15.79 kcal/mol
-----------------------------------------------------------------------
Final Gibbs free energy         ...    -79.69276138 Eh

For completeness - the Gibbs free energy minus the electronic energy
G-E(el)                           ...      0.05305801 Eh     33.29 kcal/mol



Timings for individual modules:

Sum of individual times         ...      221.196 sec (=   3.687 min)
GTO integral calculation        ...        4.796 sec (=   0.080 min)   2.2 %
SCF iterations                  ...       10.624 sec (=   0.177 min)   4.8 %
EPR/NMR calculation             ...        2.913 sec (=   0.049 min)   1.3 %
SCF Gradient evaluation         ...        5.307 sec (=   0.088 min)   2.4 %
Numerical frequency calculation ...      197.556 sec (=   3.293 min)  89.3 %
                             ****ORCA TERMINATED NORMALLY****
TOTAL RUN TIME: 0 days 0 hours 3 minutes 31 seconds 795 msec
