
                                 *****************
                                 * O   R   C   A *
                                 *****************

                                            #,                                       
                                            ###                                      
                                            ####                                     
                                            #####                                    
                                            ######                                   
                                           ########,                                 
                                     ,,################,,,,,                         
                               ,,#################################,,                 
                          ,,##########################################,,             
                       ,#########################################, ''#####,          
                    ,#############################################,,   '####,        
                  ,##################################################,,,,####,       
                ,###########''''           ''''###############################       
              ,#####''   ,,,,##########,,,,          '''####'''          '####       
            ,##' ,,,,###########################,,,                        '##       
           ' ,,###''''                  '''############,,,                           
         ,,##''                                '''############,,,,        ,,,,,,###''
      ,#''                                            '''#######################'''  
     '                                                          ''''####''''         
             ,#######,   #######,   ,#######,      ##                                
            ,#'     '#,  ##    ##  ,#'     '#,    #''#        ######   ,####,        
            ##       ##  ##   ,#'  ##            #'  '#       #        #'  '#        
            ##       ##  #######   ##           ,######,      #####,   #    #        
            '#,     ,#'  ##    ##  '#,     ,#' ,#      #,         ##   #,  ,#        
             '#######'   ##     ##  '#######'  #'      '#     #####' # '####'        



                  #######################################################
                  #                        -***-                        #
                  #          Department of theory and spectroscopy      #
                  #    Directorship and core code : Frank Neese         #
                  #        Max Planck Institute fuer Kohlenforschung    #
                  #                Kaiser Wilhelm Platz 1               #
                  #                 D-45470 Muelheim/Ruhr               #
                  #                      Germany                        #
                  #                                                     #
                  #                  All rights reserved                #
                  #                        -***-                        #
                  #######################################################


                         Program Version 5.0.3 -  RELEASE  -


 With contributions from (in alphabetic order):
   Daniel Aravena         : Magnetic Suceptibility
   Michael Atanasov       : Ab Initio Ligand Field Theory (pilot matlab implementation)
   Alexander A. Auer      : GIAO ZORA, VPT2 properties, NMR spectrum
   Ute Becker             : Parallelization
   Giovanni Bistoni       : ED, misc. LED, open-shell LED, HFLD
   Martin Brehm           : Molecular dynamics
   Dmytro Bykov           : SCF Hessian
   Vijay G. Chilkuri      : MRCI spin determinant printing, contributions to CSF-ICE
   Dipayan Datta          : RHF DLPNO-CCSD density
   Achintya Kumar Dutta   : EOM-CC, STEOM-CC
   Dmitry Ganyushin       : Spin-Orbit,Spin-Spin,Magnetic field MRCI
   Miquel Garcia          : C-PCM and meta-GGA Hessian, CC/C-PCM, Gaussian charge scheme
   Yang Guo               : DLPNO-NEVPT2, F12-NEVPT2, CIM, IAO-localization
   Andreas Hansen         : Spin unrestricted coupled pair/coupled cluster methods
   Benjamin Helmich-Paris : MC-RPA, TRAH-SCF, COSX integrals
   Lee Huntington         : MR-EOM, pCC
   Robert Izsak           : Overlap fitted RIJCOSX, COSX-SCS-MP3, EOM
   Marcus Kettner         : VPT2
   Christian Kollmar      : KDIIS, OOCD, Brueckner-CCSD(T), CCSD density, CASPT2, CASPT2-K
   Simone Kossmann        : Meta GGA functionals, TD-DFT gradient, OOMP2, MP2 Hessian
   Martin Krupicka        : Initial AUTO-CI
   Lucas Lang             : DCDCAS
   Marvin Lechner         : AUTO-CI (C++ implementation), FIC-MRCC
   Dagmar Lenk            : GEPOL surface, SMD
   Dimitrios Liakos       : Extrapolation schemes; Compound Job, initial MDCI parallelization
   Dimitrios Manganas     : Further ROCIS development; embedding schemes
   Dimitrios Pantazis     : SARC Basis sets
   Anastasios Papadopoulos: AUTO-CI, single reference methods and gradients
   Taras Petrenko         : DFT Hessian,TD-DFT gradient, ASA, ECA, R-Raman, ABS, FL, XAS/XES, NRVS
   Peter Pinski           : DLPNO-MP2, DLPNO-MP2 Gradient
   Christoph Reimann      : Effective Core Potentials
   Marius Retegan         : Local ZFS, SOC
   Christoph Riplinger    : Optimizer, TS searches, QM/MM, DLPNO-CCSD(T), (RO)-DLPNO pert. Triples
   Tobias Risthaus        : Range-separated hybrids, TD-DFT gradient, RPA, STAB
   Michael Roemelt        : Original ROCIS implementation
   Masaaki Saitow         : Open-shell DLPNO-CCSD energy and density
   Barbara Sandhoefer     : DKH picture change effects
   Avijit Sen             : IP-ROCIS
   Kantharuban Sivalingam : CASSCF convergence, NEVPT2, FIC-MRCI
   Bernardo de Souza      : ESD, SOC TD-DFT
   Georgi Stoychev        : AutoAux, RI-MP2 NMR, DLPNO-MP2 response
   Willem Van den Heuvel  : Paramagnetic NMR
   Boris Wezisla          : Elementary symmetry handling
   Frank Wennmohs         : Technical directorship


 We gratefully acknowledge several colleagues who have allowed us to
 interface, adapt or use parts of their codes:
   Stefan Grimme, W. Hujo, H. Kruse, P. Pracht,  : VdW corrections, initial TS optimization,
                  C. Bannwarth, S. Ehlert          DFT functionals, gCP, sTDA/sTD-DF
   Ed Valeev, F. Pavosevic, A. Kumar             : LibInt (2-el integral package), F12 methods
   Garnet Chan, S. Sharma, J. Yang, R. Olivares  : DMRG
   Ulf Ekstrom                                   : XCFun DFT Library
   Mihaly Kallay                                 : mrcc  (arbitrary order and MRCC methods)
   Jiri Pittner, Ondrej Demel                    : Mk-CCSD
   Frank Weinhold                                : gennbo (NPA and NBO analysis)
   Christopher J. Cramer and Donald G. Truhlar   : smd solvation model
   Lars Goerigk                                  : TD-DFT with DH, B97 family of functionals
   V. Asgeirsson, H. Jonsson                     : NEB implementation
   FAccTs GmbH                                   : IRC, NEB, NEB-TS, DLPNO-Multilevel, CI-OPT
                                                   MM, QMMM, 2- and 3-layer-ONIOM, Crystal-QMMM,
                                                   LR-CPCM, SF, NACMEs, symmetry and pop. for TD-DFT,
                                                   nearIR, NL-DFT gradient (VV10), updates on ESD,
                                                   ML-optimized integration grids
   S Lehtola, MJT Oliveira, MAL Marques          : LibXC Library
   Liviu Ungur et al                             : ANISO software


 Your calculation uses the libint2 library for the computation of 2-el integrals
 For citations please refer to: http://libint.valeyev.net

 Your ORCA version has been built with support for libXC version: 5.1.0
 For citations please refer to: https://tddft.org/programs/libxc/

 This ORCA versions uses:
   CBLAS   interface :  Fast vector & matrix operations
   LAPACKE interface :  Fast linear algebra routines
   Shared memory     :  Shared parallel matrices


SCAN-COORDS
================================================================================

----- Orbital basis set information -----
Your calculation utilizes the basis: def2-TZVP
   F. Weigend and R. Ahlrichs, Phys. Chem. Chem. Phys. 7, 3297 (2005).

----- AuxJ basis set information -----
Your calculation utilizes the auxiliary basis: def2/J
   F. Weigend, Phys. Chem. Chem. Phys. 8, 1057 (2006).

================================================================================
                                        WARNINGS
                       Please study these warnings very carefully!
================================================================================

WARNING: Gradients needed for Numerical Frequencies
  ===> : Setting RunTyp to EnGrad

WARNING: The environment variable RSH_COMMAND is not set!
  ===> : All Displacements for the Numerical Hessian or Gradient calculation
         will be started on localhost

INFO   : the flag for use of the SHARK integral package has been found!

================================================================================
                                       INPUT FILE
================================================================================
NAME = HCN_60.inp
|  1> ! PAL5 PBE0 NumFreq
|  2> %method
|  3>         method DFT
|  4>         runtyp Energy
|  5> end
|  6> %basis
|  7>         basis "def2-TZVP"
|  8> end
|  9> %coords
| 10>         CTyp xyz
| 11>         Charge 0
| 12>         Mult 1
| 13>         Units Angs
| 14>         coords
| 15> 	#60
| 16> 	C     -1.011290    0.960957    0.000001
| 17> 	N     -1.587576    0.989457   -1.003037
| 18> 	H     -2.068270    1.013340    0.000003
| 19> 	end
| 20> end
| 21> %eprnmr
| 22>         NMRShielding 1
| 23>         Nuclei = all N {shift}
| 24>         Nuclei = all C {shift}
| 25>         Nuclei = all H {shift}
| 26> endd                         ****END OF INPUT****
================================================================================

                     *******************************
                     * Energy+Gradient Calculation *
                     *******************************

---------------------------------
CARTESIAN COORDINATES (ANGSTROEM)
---------------------------------
  C     -1.011290    0.960957    0.000001
  N     -1.587576    0.989457   -1.003037
  H     -2.068270    1.013340    0.000003

----------------------------
CARTESIAN COORDINATES (A.U.)
----------------------------
  NO LB      ZA    FRAG     MASS         X           Y           Z
   0 C     6.0000    0    12.011   -1.911061    1.815946    0.000002
   1 N     7.0000    0    14.007   -3.000084    1.869803   -1.895465
   2 H     1.0000    0     1.008   -3.908464    1.914935    0.000006

--------------------------------
INTERNAL COORDINATES (ANGSTROEM)
--------------------------------
 C      0   0   0     0.000000000000     0.00000000     0.00000000
 N      1   0   0     1.157152986100     0.00000000     0.00000000
 H      1   2   0     1.058277231680    60.09075677     0.00000000

---------------------------
INTERNAL COORDINATES (A.U.)
---------------------------
 C      0   0   0     0.000000000000     0.00000000     0.00000000
 N      1   0   0     2.186702238778     0.00000000     0.00000000
 H      1   2   0     1.999854141640    60.09075677     0.00000000

---------------------
BASIS SET INFORMATION
---------------------
There are 3 groups of distinct atoms

 Group   1 Type C   : 11s6p2d1f contracted to 5s3p2d1f pattern {62111/411/11/1}
 Group   2 Type N   : 11s6p2d1f contracted to 5s3p2d1f pattern {62111/411/11/1}
 Group   3 Type H   : 5s1p contracted to 3s1p pattern {311/1}

Atom   0C    basis set group =>   1
Atom   1N    basis set group =>   2
Atom   2H    basis set group =>   3
---------------------------------
AUXILIARY/J BASIS SET INFORMATION
---------------------------------
There are 3 groups of distinct atoms

 Group   1 Type C   : 12s5p4d2f1g contracted to 6s4p3d1f1g pattern {711111/2111/211/2/1}
 Group   2 Type N   : 12s5p4d2f1g contracted to 6s4p3d1f1g pattern {711111/2111/211/2/1}
 Group   3 Type H   : 5s2p1d contracted to 3s1p1d pattern {311/2/1}

Atom   0C    basis set group =>   1
Atom   1N    basis set group =>   2
Atom   2H    basis set group =>   3


           ************************************************************
           *        Program running with 5 parallel MPI-processes     *
           *              working on a common directory               *
           ************************************************************
------------------------------------------------------------------------------
                           ORCA GTO INTEGRAL CALCULATION
                           -- RI-GTO INTEGRALS CHOSEN --
------------------------------------------------------------------------------
------------------------------------------------------------------------------
                   ___                                                        
                  /   \      - P O W E R E D   B Y -                         
                 /     \                                                     
                 |  |  |   _    _      __       _____    __    __             
                 |  |  |  | |  | |    /  \     |  _  \  |  |  /  |          
                  \  \/   | |  | |   /    \    | | | |  |  | /  /          
                 / \  \   | |__| |  /  /\  \   | |_| |  |  |/  /          
                |  |  |   |  __  | /  /__\  \  |    /   |      \           
                |  |  |   | |  | | |   __   |  |    \   |  |\   \          
                \     /   | |  | | |  |  |  |  | |\  \  |  | \   \       
                 \___/    |_|  |_| |__|  |__|  |_| \__\ |__|  \__/        
                                                                              
                      - O R C A' S   B I G   F R I E N D -                    
                                      &                                       
                       - I N T E G R A L  F E E D E R -                       
                                                                              
 v1 FN, 2020, v2 2021                                                         
------------------------------------------------------------------------------


Reading SHARK input file HCN_60.SHARKINP.tmp ... ok
----------------------
SHARK INTEGRAL PACKAGE
----------------------

Number of atoms                             ...      3
Number of basis functions                   ...     68
Number of shells                            ...     26
Maximum angular momentum                    ...      3
Integral batch strategy                     ... SHARK/LIBINT Hybrid
RI-J (if used) integral strategy            ... SPLIT-RIJ (Revised 2003 algorithm where possible)
Printlevel                                  ...      1
Contraction scheme used                     ... SEGMENTED contraction
Coulomb Range Separation                    ... NOT USED
Exchange Range Separation                   ... NOT USED
Finite Nucleus Model                        ... NOT USED
Auxiliary Coulomb fitting basis             ... AVAILABLE
   # of basis functions in Aux-J            ...    109
   # of shells in Aux-J                     ...     35
   Maximum angular momentum in Aux-J        ...      4
Auxiliary J/K fitting basis                 ... NOT available
Auxiliary Correlation fitting basis         ... NOT available
Auxiliary 'external' fitting basis          ... NOT available
Integral threshold                          ...     2.500000e-11
Primitive cut-off                           ...     2.500000e-12
Primitive pair pre-selection threshold      ...     2.500000e-12

Calculating pre-screening integrals         ... done (  0.0 sec) Dimension = 26
Organizing shell pair data                  ... done (  0.0 sec)
Shell pair information
Total number of shell pairs                 ...       351
Shell pairs after pre-screening             ...       350
Total number of primitive shell pairs       ...      1128
Primitive shell pairs kept                  ...      1043
          la=0 lb=0:     90 shell pairs
          la=1 lb=0:     91 shell pairs
          la=1 lb=1:     28 shell pairs
          la=2 lb=0:     52 shell pairs
          la=2 lb=1:     28 shell pairs
          la=2 lb=2:     10 shell pairs
          la=3 lb=0:     26 shell pairs
          la=3 lb=1:     14 shell pairs
          la=3 lb=2:      8 shell pairs
          la=3 lb=3:      3 shell pairs

Calculating one electron integrals          ... done (  0.0 sec)
Calculating RI/J V-Matrix + Cholesky decomp.... done (  0.0 sec)
Calculating Nuclear repulsion               ... done (  0.0 sec) ENN=     25.536783461231 Eh

SHARK setup successfully completed in   0.1 seconds

Maximum memory used throughout the entire GTOINT-calculation: 14.0 MB


           ************************************************************
           *        Program running with 5 parallel MPI-processes     *
           *              working on a common directory               *
           ************************************************************
-------------------------------------------------------------------------------
                                 ORCA SCF
-------------------------------------------------------------------------------

------------
SCF SETTINGS
------------
Hamiltonian:
 Density Functional     Method          .... DFT(GTOs)
 Exchange Functional    Exchange        .... PBE
   PBE kappa parameter   XKappa         ....  0.804000
   PBE mue parameter    XMuePBE         ....  0.219520
 Correlation Functional Correlation     .... PBE
   PBE beta parameter  CBetaPBE         ....  0.066725
 LDA part of GGA corr.  LDAOpt          .... PW91-LDA
 Gradients option       PostSCFGGA      .... off
 Hybrid DFT is turned on
   Fraction HF Exchange ScalHFX         ....  0.250000
   Scaling of DF-GGA-X  ScalDFX         ....  0.750000
   Scaling of DF-GGA-C  ScalDFC         ....  1.000000
   Scaling of DF-LDA-C  ScalLDAC        ....  1.000000
   Perturbative correction              ....  0.000000
   Density functional embedding theory  .... OFF
   NL short-range parameter             ....  6.900000
 RI-approximation to the Coulomb term is turned on
   Number of AuxJ basis functions       .... 109
   RIJ-COSX (HFX calculated with COS-X)).... on


General Settings:
 Integral files         IntName         .... HCN_60
 Hartree-Fock type      HFTyp           .... RHF
 Total Charge           Charge          ....    0
 Multiplicity           Mult            ....    1
 Number of Electrons    NEL             ....   14
 Basis Dimension        Dim             ....   68
 Nuclear Repulsion      ENuc            ....     25.5367834612 Eh

Convergence Acceleration:
 DIIS                   CNVDIIS         .... on
   Start iteration      DIISMaxIt       ....    12
   Startup error        DIISStart       ....  0.200000
   # of expansion vecs  DIISMaxEq       ....     5
   Bias factor          DIISBfac        ....   1.050
   Max. coefficient     DIISMaxC        ....  10.000
 Trust-Rad. Augm. Hess. CNVTRAH         .... auto
   Auto Start mean grad. ratio tolernc. ....  1.125000
   Auto Start start iteration           ....    20
   Auto Start num. interpolation iter.  ....    10
   Max. Number of Micro iterations      ....    16
   Max. Number of Macro iterations      .... Maxiter - #DIIS iter
   Number of Davidson start vectors     ....     2
   Converg. threshold I  (grad. norm)   ....   1.000e-05
   Converg. threshold II (energy diff.) ....   1.000e-08
   Grad. Scal. Fac. for Micro threshold ....   0.100
   Minimum threshold for Micro iter.    ....   0.010
   NR start threshold (gradient norm)   ....   0.001
   Initial trust radius                 ....   0.400
   Minimum AH scaling param. (alpha)    ....   1.000
   Maximum AH scaling param. (alpha)    .... 1000.000
   Orbital update algorithm             .... Taylor
   White noise on init. David. guess    .... on
   Maximum white noise                  ....   0.010
   Quad. conv. algorithm                .... NR
 SOSCF                  CNVSOSCF        .... on
   Start iteration      SOSCFMaxIt      ....   150
   Startup grad/error   SOSCFStart      ....  0.003300
 Level Shifting         CNVShift        .... on
   Level shift para.    LevelShift      ....    0.2500
   Turn off err/grad.   ShiftErr        ....    0.0010
 Zerner damping         CNVZerner       .... off
 Static damping         CNVDamp         .... on
   Fraction old density DampFac         ....    0.7000
   Max. Damping (<1)    DampMax         ....    0.9800
   Min. Damping (>=0)   DampMin         ....    0.0000
   Turn off err/grad.   DampErr         ....    0.1000
 Fernandez-Rico         CNVRico         .... off

SCF Procedure:
 Maximum # iterations   MaxIter         ....   125
 SCF integral mode      SCFMode         .... Direct
   Integral package                     .... SHARK and LIBINT hybrid scheme
 Reset frequency        DirectResetFreq ....    20
 Integral Threshold     Thresh          ....  2.500e-11 Eh
 Primitive CutOff       TCut            ....  2.500e-12 Eh

Convergence Tolerance:
 Convergence Check Mode ConvCheckMode   .... Total+1el-Energy
 Convergence forced     ConvForced      .... 0
 Energy Change          TolE            ....  1.000e-08 Eh
 1-El. energy change                    ....  1.000e-05 Eh
 Orbital Gradient       TolG            ....  1.000e-05
 Orbital Rotation angle TolX            ....  1.000e-05
 DIIS Error             TolErr          ....  5.000e-07


Diagonalization of the overlap matrix:
Smallest eigenvalue                        ... 6.506e-04
Time for diagonalization                   ...    0.000 sec
Threshold for overlap eigenvalues          ... 1.000e-08
Number of eigenvalues below threshold      ... 0
Time for construction of square roots      ...    0.007 sec
Total time needed                          ...    0.008 sec

Time for model grid setup =    0.030 sec

------------------------------
INITIAL GUESS: MODEL POTENTIAL
------------------------------
Loading Hartree-Fock densities                     ... done
Calculating cut-offs                               ... done
Initializing the effective Hamiltonian             ... done
Setting up the integral package (SHARK)            ... done
Starting the Coulomb interaction                   ... done (   0.0 sec)
Reading the grid                                   ... done
Mapping shells                                     ... done
Starting the XC term evaluation                    ... done (   0.0 sec)
  promolecular density results
     # of electrons  =     13.999937981
     EX              =    -11.894781139
     EC              =     -0.441397693
     EX+EC           =    -12.336178832
Transforming the Hamiltonian                       ... done (   0.0 sec)
Diagonalizing the Hamiltonian                      ... done (   0.0 sec)
Back transforming the eigenvectors                 ... done (   0.0 sec)
Now organizing SCF variables                       ... done
                      ------------------
                      INITIAL GUESS DONE (   0.0 sec)
                      ------------------
-------------------
DFT GRID GENERATION
-------------------

General Integration Accuracy     IntAcc      ... 4.388
Radial Grid Type                 RadialGrid  ... OptM3 with GC (2021)
Angular Grid (max. ang.)         AngularGrid ... 4 (Lebedev-302)
Angular grid pruning method      GridPruning ... 4 (adaptive)
Weight generation scheme         WeightScheme... Becke
Basis function cutoff            BFCut       ... 1.0000e-11
Integration weight cutoff        WCut        ... 1.0000e-14
Angular grids for H and He will be reduced by one unit
Partially contracted basis set               ... off
Rotationally invariant grid construction     ... off

Total number of grid points                  ...    15558
Total number of batches                      ...      245
Average number of points per batch           ...       63
Average number of grid points per atom       ...     5186
Time for grid setup =    0.081 sec

--------------------
COSX GRID GENERATION
--------------------

GRIDX 1
-------
General Integration Accuracy     IntAcc      ... 3.816
Radial Grid Type                 RadialGrid  ... OptM3 with GC (2021)
Angular Grid (max. ang.)         AngularGrid ... 1 (Lebedev-50)
Angular grid pruning method      GridPruning ... 4 (adaptive)
Weight generation scheme         WeightScheme... Becke
Basis function cutoff            BFCut       ... 1.0000e-11
Integration weight cutoff        WCut        ... 1.0000e-14
Angular grids for H and He will be reduced by one unit
Partially contracted basis set               ... on
Rotationally invariant grid construction     ... off

Total number of grid points                  ...     1981
Total number of batches                      ...       32
Average number of points per batch           ...       61
Average number of grid points per atom       ...      660
UseSFitting                                  ... on

GRIDX 2
-------
General Integration Accuracy     IntAcc      ... 4.020
Radial Grid Type                 RadialGrid  ... OptM3 with GC (2021)
Angular Grid (max. ang.)         AngularGrid ... 2 (Lebedev-110)
Angular grid pruning method      GridPruning ... 4 (adaptive)
Weight generation scheme         WeightScheme... Becke
Basis function cutoff            BFCut       ... 1.0000e-11
Integration weight cutoff        WCut        ... 1.0000e-14
Angular grids for H and He will be reduced by one unit
Partially contracted basis set               ... on
Rotationally invariant grid construction     ... off

Total number of grid points                  ...     4571
Total number of batches                      ...       73
Average number of points per batch           ...       62
Average number of grid points per atom       ...     1524
UseSFitting                                  ... on

GRIDX 3
-------
General Integration Accuracy     IntAcc      ... 4.338
Radial Grid Type                 RadialGrid  ... OptM3 with GC (2021)
Angular Grid (max. ang.)         AngularGrid ... 3 (Lebedev-194)
Angular grid pruning method      GridPruning ... 4 (adaptive)
Weight generation scheme         WeightScheme... Becke
Basis function cutoff            BFCut       ... 1.0000e-11
Integration weight cutoff        WCut        ... 1.0000e-14
Angular grids for H and He will be reduced by one unit
Partially contracted basis set               ... on
Rotationally invariant grid construction     ... off

Total number of grid points                  ...    10191
Total number of batches                      ...      160
Average number of points per batch           ...       63
Average number of grid points per atom       ...     3397
UseSFitting                                  ... on

Time for X-Grid setup             =    0.084 sec

--------------
SCF ITERATIONS
--------------
ITER       Energy         Delta-E        Max-DP      RMS-DP      [F,P]     Damp
               ***  Starting incremental Fock matrix formation  ***
  0    -93.2140749884   0.000000000000 0.02600534  0.00139733  0.1538845 0.7000
  1    -93.2313473493  -0.017272360823 0.02391857  0.00103361  0.0776229 0.7000
                               ***Turning on DIIS***
  2    -93.2390034179  -0.007656068630 0.05728560  0.00199269  0.0300801 0.0000
  3    -93.2513965198  -0.012393101874 0.01293435  0.00070367  0.0344294 0.0000
  4    -93.2533748976  -0.001978377821 0.00809545  0.00028515  0.0106025 0.0000
                      *** Initiating the SOSCF procedure ***
                           *** Shutting down DIIS ***
                      *** Re-Reading the Fockian *** 
                      *** Removing any level shift *** 
ITER      Energy       Delta-E        Grad      Rot      Max-DP    RMS-DP
  5    -93.25355634  -0.0001814385  0.000326  0.000326  0.002109  0.000094
               *** Restarting incremental Fock matrix formation ***
  6    -93.25355772  -0.0000013861  0.000119  0.000276  0.000331  0.000017
  7    -93.25355787  -0.0000001433  0.000115  0.000152  0.000126  0.000006
  8    -93.25355798  -0.0000001174  0.000075  0.000092  0.000157  0.000006
  9    -93.25355799  -0.0000000039  0.000051  0.000041  0.000083  0.000003
                  ***Gradient check signals convergence***
              ***Rediagonalizing the Fockian in SOSCF/NRSCF***

               *****************************************************
               *                     SUCCESS                       *
               *           SCF CONVERGED AFTER  10 CYCLES          *
               *****************************************************

Old exchange energy                            =     -3.024454607 Eh
New exchange energy                            =     -3.024463623 Eh
Exchange energy change after final integration =     -0.000009016 Eh
Total energy after final integration           =    -93.253567030 Eh
Final COS-X integration done in                =     0.100 sec

----------------
TOTAL SCF ENERGY
----------------

Total Energy       :          -93.25356703 Eh           -2537.55857 eV

Components:
Nuclear Repulsion  :           25.53678346 Eh             694.89121 eV
Electronic Energy  :         -118.79035049 Eh           -3232.44977 eV
One Electron Energy:         -175.39961551 Eh           -4772.86619 eV
Two Electron Energy:           56.60926502 Eh            1540.41641 eV
Max COSX asymmetry :            0.00000146 Eh               0.00004 eV

Virial components:
Potential Energy   :         -186.51719908 Eh           -5075.39101 eV
Kinetic Energy     :           93.26363205 Eh            2537.83245 eV
Virial Ratio       :            1.99989208


DFT components:
N(Alpha)           :        6.999998976969 electrons
N(Beta)            :        6.999998976969 electrons
N(Total)           :       13.999997953939 electrons
E(X)               :       -9.064396743435 Eh       
E(C)               :       -0.447276726566 Eh       
E(XC)              :       -9.511673470001 Eh       
DFET-embed. en.    :        0.000000000000 Eh       

---------------
SCF CONVERGENCE
---------------

  Last Energy change         ...   -2.7075e-08  Tolerance :   1.0000e-08
  Last MAX-Density change    ...    6.6613e-16  Tolerance :   1.0000e-07
  Last RMS-Density change    ...    2.3141e-17  Tolerance :   5.0000e-09
  Last Orbital Gradient      ...    2.1481e-06  Tolerance :   1.0000e-05
  Last Orbital Rotation      ...    2.8323e-06  Tolerance :   1.0000e-05

             **** THE GBW FILE WAS UPDATED (HCN_60.gbw) ****
             **** DENSITY HCN_60.scfp WAS UPDATED ****
             **** ENERGY FILE WAS UPDATED (HCN_60.en.tmp) ****
             **** THE GBW FILE WAS UPDATED (HCN_60.gbw) ****
             **** DENSITY HCN_60.scfp WAS UPDATED ****
----------------
ORBITAL ENERGIES
----------------

  NO   OCC          E(Eh)            E(eV) 
   0   2.0000     -14.457799      -393.4167 
   1   2.0000     -10.290681      -280.0237 
   2   2.0000      -1.092942       -29.7405 
   3   2.0000      -0.565982       -15.4012 
   4   2.0000      -0.492233       -13.3943 
   5   2.0000      -0.430748       -11.7213 
   6   2.0000      -0.360149        -9.8001 
   7   0.0000      -0.030573        -0.8319 
   8   0.0000       0.007857         0.2138 
   9   0.0000       0.072381         1.9696 
  10   0.0000       0.166762         4.5378 
  11   0.0000       0.205478         5.5913 
  12   0.0000       0.224161         6.0997 
  13   0.0000       0.225862         6.1460 
  14   0.0000       0.298494         8.1224 
  15   0.0000       0.394634        10.7385 
  16   0.0000       0.415727        11.3125 
  17   0.0000       0.442923        12.0525 
  18   0.0000       0.537659        14.6305 
  19   0.0000       0.580537        15.7972 
  20   0.0000       0.653801        17.7908 
  21   0.0000       0.764952        20.8154 
  22   0.0000       0.843667        22.9573 
  23   0.0000       0.915698        24.9174 
  24   0.0000       1.117761        30.4158 
  25   0.0000       1.124817        30.6078 
  26   0.0000       1.162585        31.6355 
  27   0.0000       1.238869        33.7113 
  28   0.0000       1.325200        36.0605 
  29   0.0000       1.391561        37.8663 
  30   0.0000       1.461111        39.7589 
  31   0.0000       1.496789        40.7297 
  32   0.0000       1.510630        41.1063 
  33   0.0000       1.805335        49.1257 
  34   0.0000       1.812921        49.3321 
  35   0.0000       1.937103        52.7113 
  36   0.0000       2.065638        56.2089 
  37   0.0000       2.123834        57.7925 
  38   0.0000       2.188069        59.5404 
  39   0.0000       2.485062        67.6220 
  40   0.0000       2.592907        70.5566 
  41   0.0000       2.684917        73.0603 
  42   0.0000       2.865795        77.9823 
  43   0.0000       2.891418        78.6795 
  44   0.0000       2.926837        79.6433 
  45   0.0000       2.945227        80.1437 
  46   0.0000       3.085286        83.9549 
  47   0.0000       3.104575        84.4798 
  48   0.0000       3.279324        89.2349 
  49   0.0000       3.335026        90.7507 
  50   0.0000       3.363098        91.5145 
  51   0.0000       3.374135        91.8149 
  52   0.0000       3.852005       104.8184 
  53   0.0000       4.012578       109.1878 
  54   0.0000       4.105413       111.7140 
  55   0.0000       4.327842       117.7666 
  56   0.0000       4.374608       119.0391 
  57   0.0000       4.552006       123.8664 
  58   0.0000       4.556965       124.0013 
  59   0.0000       4.793627       130.4412 
  60   0.0000       4.826937       131.3476 
  61   0.0000       5.122777       139.3978 
  62   0.0000       5.315565       144.6439 
  63   0.0000       5.388343       146.6243 
  64   0.0000       5.476647       149.0271 
  65   0.0000       5.704271       155.2211 
  66   0.0000      22.004506       598.7731 
  67   0.0000      31.895163       867.9115 

                    ********************************
                    * MULLIKEN POPULATION ANALYSIS *
                    ********************************

-----------------------
MULLIKEN ATOMIC CHARGES
-----------------------
   0 C :   -0.238430
   1 N :    0.003061
   2 H :    0.235369
Sum of atomic charges:   -0.0000000

--------------------------------
MULLIKEN REDUCED ORBITAL CHARGES
--------------------------------
  0 C s       :     3.813346  s :     3.813346
      pz      :     0.991948  p :     2.312423
      px      :     0.602984
      py      :     0.717491
      dz2     :     0.031341  d :     0.103332
      dxz     :     0.017628
      dyz     :     0.023981
      dx2y2   :     0.013043
      dxy     :     0.017339
      f0      :     0.001744  f :     0.009329
      f+1     :     0.001146
      f-1     :     0.001434
      f+2     :     0.000994
      f-2     :     0.001990
      f+3     :     0.001175
      f-3     :     0.000847
  1 N s       :     3.701571  s :     3.701571
      pz      :     1.010516  p :     3.233157
      px      :     1.024832
      py      :     1.197809
      dz2     :     0.017962  d :     0.059408
      dxz     :     0.019725
      dyz     :     0.018981
      dx2y2   :     0.001119
      dxy     :     0.001621
      f0      :     0.001111  f :     0.002804
      f+1     :     0.000376
      f-1     :     0.000969
      f+2     :     0.000020
      f-2     :     0.000118
      f+3     :     0.000091
      f-3     :     0.000119
  2 H s       :     0.707024  s :     0.707024
      pz      :     0.020093  p :     0.057607
      px      :     0.020981
      py      :     0.016533


                     *******************************
                     * LOEWDIN POPULATION ANALYSIS *
                     *******************************

----------------------
LOEWDIN ATOMIC CHARGES
----------------------
   0 C :   -0.272209
   1 N :    0.105046
   2 H :    0.167163

-------------------------------
LOEWDIN REDUCED ORBITAL CHARGES
-------------------------------
  0 C s       :     3.236149  s :     3.236149
      pz      :     1.193204  p :     2.683506
      px      :     0.766979
      py      :     0.723323
      dz2     :     0.097207  d :     0.297847
      dxz     :     0.078607
      dyz     :     0.051388
      dx2y2   :     0.046666
      dxy     :     0.023980
      f0      :     0.010512  f :     0.054706
      f+1     :     0.013443
      f-1     :     0.008690
      f+2     :     0.005367
      f-2     :     0.009506
      f+3     :     0.005767
      f-3     :     0.001422
  1 N s       :     3.280265  s :     3.280265
      pz      :     1.264154  p :     3.464891
      px      :     1.085192
      py      :     1.115545
      dz2     :     0.052705  d :     0.134232
      dxz     :     0.052156
      dyz     :     0.021918
      dx2y2   :     0.003523
      dxy     :     0.003930
      f0      :     0.004454  f :     0.015566
      f+1     :     0.005976
      f-1     :     0.001876
      f+2     :     0.001454
      f-2     :     0.001301
      f+3     :     0.000322
      f-3     :     0.000184
  2 H s       :     0.672074  s :     0.672074
      pz      :     0.064783  p :     0.160762
      px      :     0.058512
      py      :     0.037467


                      *****************************
                      * MAYER POPULATION ANALYSIS *
                      *****************************

  NA   - Mulliken gross atomic population
  ZA   - Total nuclear charge
  QA   - Mulliken gross atomic charge
  VA   - Mayer's total valence
  BVA  - Mayer's bonded valence
  FA   - Mayer's free valence

  ATOM       NA         ZA         QA         VA         BVA        FA
  0 C      6.2384     6.0000    -0.2384     2.6769     2.6769    -0.0000
  1 N      6.9969     7.0000     0.0031     2.6584     2.6584     0.0000
  2 H      0.7646     1.0000     0.2354     1.0330     1.0330    -0.0000

  Mayer bond orders larger than 0.100000
B(  0-C ,  1-N ) :   2.1512 B(  0-C ,  2-H ) :   0.5258 B(  1-N ,  2-H ) :   0.5072 


-------
TIMINGS
-------

Total SCF time: 0 days 0 hours 0 min 1 sec 

Total time                  ....       1.968 sec
Sum of individual times     ....       1.820 sec  ( 92.5%)

Fock matrix formation       ....       1.527 sec  ( 77.6%)
  Split-RI-J                ....       0.157 sec  ( 10.3% of F)
  Chain of spheres X        ....       0.677 sec  ( 44.3% of F)
  XC integration            ....       0.450 sec  ( 29.5% of F)
    Basis function eval.    ....       0.045 sec  ( 10.0% of XC)
    Density eval.           ....       0.029 sec  (  6.4% of XC)
    XC-Functional eval.     ....       0.017 sec  (  3.8% of XC)
    XC-Potential eval.      ....       0.033 sec  (  7.3% of XC)
Diagonalization             ....       0.021 sec  (  1.1%)
Density matrix formation    ....       0.001 sec  (  0.1%)
Population analysis         ....       0.011 sec  (  0.6%)
Initial guess               ....       0.019 sec  (  1.0%)
Orbital Transformation      ....       0.000 sec  (  0.0%)
Orbital Orthonormalization  ....       0.000 sec  (  0.0%)
DIIS solution               ....       0.025 sec  (  1.3%)
SOSCF solution              ....       0.021 sec  (  1.1%)
Grid generation             ....       0.195 sec  (  9.9%)

Maximum memory used throughout the entire SCF-calculation: 58.4 MB

-------------------------   --------------------
FINAL SINGLE POINT ENERGY       -93.253567030042
-------------------------   --------------------



           ************************************************************
           *        Program running with 5 parallel MPI-processes     *
           *              working on a common directory               *
           ************************************************************
------------------------------------------------------------------------------
                         ORCA SCF GRADIENT CALCULATION
------------------------------------------------------------------------------

 ... reading COSX grid (gridx3)
Gradient of the Kohn-Sham DFT energy:
Kohn-Sham wavefunction type      ... RKS
Hartree-Fock exchange scaling    ...    0.250
Number of operators              ...    1
Number of atoms                  ...    3
Basis set dimensions             ...   68
Integral neglect threshold       ... 2.5e-11
Integral primitive cutoff        ... 2.5e-12
SHARK Integral package           ... ON

Nuc. rep. gradient       (SHARK) ... done (  0.0 sec)
HCore & Overlap gradient (SHARK) ... done (  0.0 sec)
RI-J gradient            (SHARK) ... done (  0.0 sec)
COSX-gradient                    ... done (  0.1 sec)
Exchange-correlation gradient    ... done

------------------
CARTESIAN GRADIENT
------------------

   1   C   :   -0.127987644    0.006330382   -0.038026367
   2   N   :    0.006322116   -0.000271936    0.070325549
   3   H   :    0.121617067   -0.006034047   -0.032282919

Difference to translation invariance:
           :   -0.0000484611    0.0000243995    0.0000162635

Difference to rotation invariance:
           :    0.0001059769    0.0001523067    0.0000106328

Norm of the cartesian gradient     ...    0.1967789342
RMS gradient                       ...    0.0655929781
MAX gradient                       ...    0.1279876442

-------
TIMINGS
-------

Total SCF gradient time            ...        0.354 sec

One electron gradient       ....       0.004 sec  (  1.1%)
RI-J Coulomb gradient       ....       0.047 sec  ( 13.3%)
COSX gradient               ....       0.131 sec  ( 37.0%)
XC gradient                 ....       0.066 sec  ( 18.6%)

Maximum memory used throughout the entire SCFGRAD-calculation: 33.5 MB

                            ***************************************
                            *     ORCA property calculations      *
                            ***************************************

                                    ---------------------
                                    Active property flags
                                    ---------------------
   (+) Dipole Moment
   (+) Chemical Shifts
   (+) Nuclear properties (Hyperfine,Quadrupole)


------------------------------------------------------------------------------
                       ORCA ELECTRIC PROPERTIES CALCULATION
------------------------------------------------------------------------------

Dipole Moment Calculation                       ... on
Quadrupole Moment Calculation                   ... off
Polarizability Calculation                      ... off
GBWName                                         ... HCN_60.gbw
Electron density                                ... HCN_60.scfp
The origin for moment calculation is the CENTER OF MASS  = (-2.549976,  1.847551 -0.982378)

-------------
DIPOLE MOMENT
-------------
                                X             Y             Z
Electronic contribution:      0.31825      -0.01579      -0.37527
Nuclear contribution   :     -0.67575       0.03352       0.48506
                        -----------------------------------------
Total Dipole Moment    :     -0.35750       0.01773       0.10979
                        -----------------------------------------
Magnitude (a.u.)       :      0.37440
Magnitude (Debye)      :      0.95165



--------------------
Rotational spectrum 
--------------------
 
Rotational constants in cm-1:    20.667060     1.944811     1.777541 
Rotational constants in MHz : 619582.872776 58303.969601 53289.337868 

 Dipole components along the rotational axes: 
x,y,z [a.u.] :    -0.079366     0.365893    -0.000007 
x,y,z [Debye]:    -0.201732     0.930025    -0.000019 

 


           ************************************************************
           *        Program running with 5 parallel MPI-processes     *
           *              working on a common directory               *
           ************************************************************
------------------------------------------------------------------------------
                                ORCA EPR/NMR CALCULATION
------------------------------------------------------------------------------

GBWName                      ... HCN_60.gbw
Electron density             ... HCN_60.scfp
Spin density                 ... HCN_60.scfr
Treatment of gauge           ... GIAO (approximations 1/2el = 0,0)
Details of the CP(SCF) procedure:
       Solver   = POPLE   
       MaxIter  =    64   
       Tolerance=    1.000e-04
       COSX Grid=     1   
       Op-0     =   0-  6 =>   7- 67
Multiplicity                 ... 1
g-tensor                     ... 0
NMR chemical shifts          ... 1
NMR spin-spin couplings      ... 0
NMR spectrum                 ... 0
Number of nuclei for epr/nmr ... 3
   Nucleus:   1N 
       Hyperfine : Isotope=   14 I=   1.000 P=  38.568
       Quadrupole: Isotope=   14 I=   1.000 Q=   0.020
       Spin-Orbit: Zeff=   4.550
       Nuclear Spin-Spin: Gn=   0.000
       EPRNMR Input: 
       rho(0)=N f(grad)=N a(iso)=N a(dip)=N a(orb)=N sigma(nmr)=Y spin-spin(nmr)=all-N,DSO-N,PSO-N,FC-N,SD-N
   Nucleus:   0C 
       Hyperfine : Isotope=   13 I=   0.500 P= 134.190
       Quadrupole: Isotope=   13 I=   0.500 Q=   0.000
       Spin-Orbit: Zeff=   3.600
       Nuclear Spin-Spin: Gn=   0.000
       EPRNMR Input: 
       rho(0)=N f(grad)=N a(iso)=N a(dip)=N a(orb)=N sigma(nmr)=Y spin-spin(nmr)=all-N,DSO-N,PSO-N,FC-N,SD-N
   Nucleus:   2H 
       Hyperfine : Isotope=    1 I=   0.500 P= 533.551
       Quadrupole: Isotope=    2 I=   1.000 Q=   0.003
       Spin-Orbit: Zeff=   1.000
       Nuclear Spin-Spin: Gn=   0.000
       EPRNMR Input: 
       rho(0)=N f(grad)=N a(iso)=N a(dip)=N a(orb)=N sigma(nmr)=Y spin-spin(nmr)=all-N,DSO-N,PSO-N,FC-N,SD-N
Forming RHS of the CP-SCF equations         ... 
Calculating right hand sides for GIAO treatment        ... 
  Entering RightHandSide GIAO. ScalHFX=    0.2500 NeedHFX=1
     -> 1-electron GIAO integrals will be done analytically
     -> RIJCOSX used in SCF. Same chosen for GIAO calculation.
     Making grid for GIAO integrations   ...

GRID GIAO
---------

General Integration Accuracy     IntAcc      ... 4.388
Radial Grid Type                 RadialGrid  ... OptM3 with GC (2021)
Angular Grid (max. ang.)         AngularGrid ... 4 (Lebedev-302)
Angular grid pruning method      GridPruning ... 4 (adaptive)
Weight generation scheme         WeightScheme... Becke
Basis function cutoff            BFCut       ... 1.0000e-11
Integration weight cutoff        WCut        ... 1.0000e-14
Angular grids for H and He will be reduced by one unit
Partially contracted basis set               ... off
Rotationally invariant grid construction     ... off

Total number of grid points                  ...    15558
Total number of batches                      ...      245
Average number of points per batch           ...       63
Average number of grid points per atom       ...     5186

  One-electron GIAO integrals (SHARK)     ... done
  Calculating G(B)[P]                     ... (RI-J: SHARK-ok) (COSX-ok) (add-J+K:ok) => dG/dB done
  DFT XC-terms                            ... done
  Extracting occupied and virtual blocks  ... 
  Operator  0  NO=   7 NV=  61 
  Transforming and RHS contribution       ... done
  Adding eps_i * S(B)_ai terms            ... done
  Projecting overlap derivatives          ... done
  Building G[dS/dB_ij] (COSX)             ... done
  Transforming to MO basis                ... done
  Summing G[dS/dB_ij] into RHS contribs.  ... done

  GIAO profiling information: 
    Total GIAO time               ...       0.3 sec
       GIAO 1-electron integrals  ...       0.0 sec (  0.9%)
       GIAO G(dS/dB) terms        ...       0.1 sec ( 16.1%)
       GIAO RI-J                  ...       0.0 sec (  5.6%)
       GIAO COSX                  ...       0.1 sec ( 22.5%)
       GIAO XC-terms              ...       0.1 sec ( 33.0%)
       Right hand side assembly   ...       0.0 sec (  0.3%)

  GIAO right hand side done


------------------------------------------------------------------------------
                           ORCA CP-SCF CALCULATION
------------------------------------------------------------------------------

Input orbitals are from        ... HCN_60.gbw
Input Perturbation             ... HCN_60.pin.tmp
Wavefunction output            ... HCN_60.pout.tmp
Perturbation mode              ... Imaginary perturbation
Solver                         ... POPLE
Max. number of iterations      ... 64
Convergence tolerance          ... 1.000e-04
Integral handling              ... Direct
DFT GridXC                     ... 1
COSX GridX                     ... 1
COSX IntAccX                   ... 3.067
COSX Algorithm                 ... Auto
Number of perturbations        ... 3
Number of operators            ... 1
Orbital ranges used for CP-SCF:
 Operator 0:  Orbitals   0...  6  to   7... 67
Variables per perturbation     ... 427
DFT calculation                         ... on
XC functional terms                     ... off
Hybrid DFT                              ... on
   Exchange mixing (SCF)                ...  0.250
   Exchange mixing (CP-SCF)             ...  0.250
   GGA exch. scaling(SCF)               ...  0.750
   GGA exch. scaling (CP-SCF)           ...  0.750
   GGA corr. scaling (SCF)              ...  1.000
   GGA corr. scaling (CP-SCF)           ...  1.000

CP-SCF GRID
-----------

General Integration Accuracy     IntAcc      ... 3.467
Radial Grid Type                 RadialGrid  ... OptM3 with GC (2021)
Angular Grid (max. ang.)         AngularGrid ... 1 (Lebedev-50)
Angular grid pruning method      GridPruning ... 4 (adaptive)
Weight generation scheme         WeightScheme... Becke
Basis function cutoff            BFCut       ... 1.0000e-11
Integration weight cutoff        WCut        ... 1.0000e-14
Angular grids for H and He will be reduced by one unit
Partially contracted basis set               ... off
Rotationally invariant grid construction     ... off

Total number of grid points                  ...     2366
Total number of batches                      ...       38
Average number of points per batch           ...       62
Average number of grid points per atom       ...      789

CP-SCF GRIDX
------------

General Integration Accuracy     IntAcc      ... 3.067
Radial Grid Type                 RadialGrid  ... OptM3 with GC (2021)
Angular Grid (max. ang.)         AngularGrid ... 1 (Lebedev-50)
Angular grid pruning method      GridPruning ... 4 (adaptive)
Weight generation scheme         WeightScheme... Becke
Basis function cutoff            BFCut       ... 1.0000e-11
Integration weight cutoff        WCut        ... 1.0000e-14
Angular grids for H and He will be reduced by one unit
Partially contracted basis set               ... on
Rotationally invariant grid construction     ... off

Total number of grid points                  ...     1054
Total number of batches                      ...       18
Average number of points per batch           ...       58
Average number of grid points per atom       ...      351

Memory available               ... 1015.8 MB
Memory needed per perturbation ...   0.2 MB
Perturbations treated per batch... 3
Number of batches              ... 1
     CP-SCF ITERATION   0:   4.0571e-01 (   0.0 sec   0/  3 done)
     CP-SCF ITERATION   1:   1.2481e-02 (   0.0 sec   0/  3 done)
     CP-SCF ITERATION   2:   7.9738e-04 (   0.0 sec   0/  3 done)
     CP-SCF ITERATION   3:   8.1263e-05 (   0.0 sec   3/  3 done)
                    *** THE CP-SCF HAS CONVERGED ***

Forming final perturbed densities           ... done
Transforming perturbed density to AO basis  ... done

Magnetic field perturbation calculated in  0.588 sec

---------------
CHEMICAL SHIFTS
---------------

Note: using conversion factor for au to ppm alpha^2/2 =   26.625677252 
GIAO: Analytic para- and diamagnetic shielding integrals (SHARK)       ...done
 --------------
 Nucleus   1N :
 --------------

Diamagnetic contribution to the shielding tensor (ppm) : 
           322.976         -6.691        10.029
            -0.718        309.009        -0.498
             6.265          9.394       328.071

Paramagnetic contribution to the shielding tensor (ppm): 
          -461.404         -3.703       184.620
            -9.655       -656.799        -9.120
           211.447        -20.171      -135.979

Total shielding tensor (ppm): 
          -138.428        -10.394       194.649
           -10.373       -347.790        -9.618
           217.713        -10.777       192.093


 Diagonalized sT*s matrix:
 
 sDSO           317.424          333.957          308.676  iso=     320.019
 sPSO          -533.445          -63.757         -656.980  iso=    -418.061
        ---------------  ---------------  ---------------
 Total         -216.022          270.200         -348.304  iso=     -98.042

 --------------
 Nucleus   0C :
 --------------

Diamagnetic contribution to the shielding tensor (ppm) : 
           261.483         -4.910         7.439
            -0.664        248.269        -0.374
             4.871         -2.820       267.274

Paramagnetic contribution to the shielding tensor (ppm): 
          -306.451          1.962       170.547
            -2.284       -352.722        -8.431
           162.523         -5.461       -76.746

Total shielding tensor (ppm): 
           -44.968         -2.948       177.986
            -2.948       -104.453        -8.804
           167.394         -8.281       190.528


 Diagonalized sT*s matrix:
 
 sDSO           248.026          257.898          271.103  iso=     259.009
 sPSO          -352.625         -393.639           10.345  iso=    -245.306
        ---------------  ---------------  ---------------
 Total         -104.599         -135.742          281.448  iso=      13.702

 --------------
 Nucleus   2H :
 --------------

Diamagnetic contribution to the shielding tensor (ppm) : 
            41.693        -11.255        -6.874
            -1.521         11.551         0.344
            -7.804          6.034        34.911

Paramagnetic contribution to the shielding tensor (ppm): 
           -10.274         12.246         1.898
             2.509         39.749        -0.098
             8.843         -6.087         0.129

Total shielding tensor (ppm): 
            31.419          0.991        -4.976
             0.988         51.300         0.246
             1.039         -0.053        35.041


 Diagonalized sT*s matrix:
 
 sDSO            36.318           40.846           10.992  iso=      29.385
 sPSO            -5.795           -4.958           40.357  iso=       9.868
        ---------------  ---------------  ---------------
 Total           30.523           35.887           51.349  iso=      39.253



--------------------------------
CHEMICAL SHIELDING SUMMARY (ppm)
--------------------------------


  Nucleus  Element    Isotropic     Anisotropy
  -------  -------  ------------   ------------
      1       N          -98.042       -375.393 
      0       C           13.702        401.618 
      2       H           39.253         18.144 



Maximum memory used throughout the entire EPRNMR-calculation: 10.2 MB

----------------------------------------------------------------------------
                           ORCA NUMERICAL FREQUENCIES
                              (5-process run)
----------------------------------------------------------------------------

Number of atoms                ... 3
Central differences            ... used
Number of displacements        ... 18
Numerical increment            ... 5.000e-03 bohr
IR-spectrum generation         ... on
Raman-spectrum generation      ... off
Surface Crossing Hessian       ... off

The output will be reduced. Please look at the following files:
SCF program output             ... >HCN_60.lastscf
Integral program output        ... >HCN_60.lastint
Gradient program output        ... >HCN_60.lastgrad
Dipole moment program output   ... >HCN_60.lastmom
AutoCI program output          ... >HCN_60.lastautoci

	<< Calculating on displaced geometry   5 (of  18) >>
	<< Calculating on displaced geometry   2 (of  18) >>
	<< Calculating on displaced geometry   4 (of  18) >>
	<< Calculating on displaced geometry   1 (of  18) >>
	<< Calculating on displaced geometry   3 (of  18) >>
	<< Calculating on displaced geometry   6 (of  18) >>
	<< Calculating on displaced geometry   7 (of  18) >>
	<< Calculating on displaced geometry   9 (of  18) >>
	<< Calculating on displaced geometry   8 (of  18) >>
	<< Calculating on displaced geometry  10 (of  18) >>
	<< Calculating on displaced geometry  11 (of  18) >>
	<< Calculating on displaced geometry  12 (of  18) >>
	<< Calculating on displaced geometry  14 (of  18) >>
	<< Calculating on displaced geometry  13 (of  18) >>
	<< Calculating on displaced geometry  15 (of  18) >>
	<< Calculating on displaced geometry  16 (of  18) >>
	<< Calculating on displaced geometry  18 (of  18) >>
	<< Calculating on displaced geometry  17 (of  18) >>

-----------------------
VIBRATIONAL FREQUENCIES
-----------------------

Scaling factor for frequencies =  1.000000000 (already applied!)

   0:         0.00 cm**-1
   1:         0.00 cm**-1
   2:         0.00 cm**-1
   3:         0.00 cm**-1
   4:         0.00 cm**-1
   5:         0.00 cm**-1
   6:       948.96 cm**-1
   7:      2232.20 cm**-1
   8:      3744.30 cm**-1


------------
NORMAL MODES
------------

These modes are the cartesian displacements weighted by the diagonal matrix
M(i,i)=1/sqrt(m[i]) where m[i] is the mass of the displaced atom
Thus, these vectors are normalized but *not* orthogonal

                  0          1          2          3          4          5    
      0       0.000000   0.000000   0.000000   0.000000   0.000000   0.000000
      1       0.000000   0.000000   0.000000   0.000000   0.000000   0.000000
      2       0.000000   0.000000   0.000000   0.000000   0.000000   0.000000
      3       0.000000   0.000000   0.000000   0.000000   0.000000   0.000000
      4       0.000000   0.000000   0.000000   0.000000   0.000000   0.000000
      5       0.000000   0.000000   0.000000   0.000000   0.000000   0.000000
      6       0.000000   0.000000   0.000000   0.000000   0.000000   0.000000
      7       0.000000   0.000000   0.000000   0.000000   0.000000   0.000000
      8       0.000000   0.000000   0.000000   0.000000   0.000000   0.000000
                  6          7          8    
      0      -0.079652  -0.280425   0.066250
      1       0.003946   0.013863  -0.003283
      2      -0.031654  -0.570708  -0.000550
      3       0.048549   0.272105   0.011183
      4      -0.002409  -0.013455  -0.000556
      5      -0.041620   0.508297  -0.022298
      6       0.274479  -0.439681  -0.944812
      7      -0.013546   0.021774   0.046843
      8       0.955521  -0.262831   0.316406


-----------
IR SPECTRUM
-----------

 Mode   freq       eps      Int      T**2         TX        TY        TZ
       cm**-1   L/(mol*cm) km/mol    a.u.
----------------------------------------------------------------------------
  6:    948.96   0.002530   12.78  0.000832  ( 0.004977 -0.000255  0.028409)
  7:   2232.20   0.003681   18.60  0.000515  (-0.022278  0.001111 -0.004142)
  8:   3744.30   0.029282  147.98  0.002440  (-0.038795  0.001949  0.030522)

* The epsilon (eps) is given for a Dirac delta lineshape.
** The dipole moment derivative (T) already includes vibrational overlap.

The first frequency considered to be a vibration is 6
The total number of vibrations considered is 3


--------------------------
THERMOCHEMISTRY AT 298.15K
--------------------------

Temperature         ... 298.15 K
Pressure            ... 1.00 atm
Total Mass          ... 27.03 AMU

Throughout the following assumptions are being made:
  (1) The electronic state is orbitally nondegenerate
  (2) There are no thermally accessible electronically excited states
  (3) Hindered rotations indicated by low frequency modes are not
      treated as such but are treated as vibrations and this may
      cause some error
  (4) All equations used are the standard statistical mechanics
      equations for an ideal gas
  (5) All vibrations are strictly harmonic

freq.     948.96  E(vib)   ...       0.03 
freq.    2232.20  E(vib)   ...       0.00 
freq.    3744.30  E(vib)   ...       0.00 

------------
INNER ENERGY
------------

The inner energy is: U= E(el) + E(ZPE) + E(vib) + E(rot) + E(trans)
    E(el)   - is the total energy from the electronic structure calculation
              = E(kin-el) + E(nuc-el) + E(el-el) + E(nuc-nuc)
    E(ZPE)  - the the zero temperature vibrational energy from the frequency calculation
    E(vib)  - the the finite temperature correction to E(ZPE) due to population
              of excited vibrational states
    E(rot)  - is the rotational thermal energy
    E(trans)- is the translational thermal energy

Summary of contributions to the inner energy U:
Electronic energy                ...    -93.25356703 Eh
Zero point energy                ...      0.01577735 Eh       9.90 kcal/mol
Thermal vibrational correction   ...      0.00004505 Eh       0.03 kcal/mol
Thermal rotational correction    ...      0.00141627 Eh       0.89 kcal/mol
Thermal translational correction ...      0.00141627 Eh       0.89 kcal/mol
-----------------------------------------------------------------------
Total thermal energy                    -93.23491209 Eh


Summary of corrections to the electronic energy:
(perhaps to be used in another calculation)
Total thermal correction                  0.00287759 Eh       1.81 kcal/mol
Non-thermal (ZPE) correction              0.01577735 Eh       9.90 kcal/mol
-----------------------------------------------------------------------
Total correction                          0.01865494 Eh      11.71 kcal/mol


--------
ENTHALPY
--------

The enthalpy is H = U + kB*T
                kB is Boltzmann's constant
Total free energy                 ...    -93.23491209 Eh 
Thermal Enthalpy correction       ...      0.00094421 Eh       0.59 kcal/mol
-----------------------------------------------------------------------
Total Enthalpy                    ...    -93.23396788 Eh


Note: Rotational entropy computed according to Herzberg 
Infrared and Raman Spectra, Chapter V,1, Van Nostrand Reinhold, 1945 
Point Group:  Cs, Symmetry Number:   1  
Rotational constants in cm-1:    20.667060     1.944811     1.777541 

Vibrational entropy computed according to the QRRHO of S. Grimme
Chem.Eur.J. 2012 18 9955


-------
ENTROPY
-------

The entropy contributions are T*S = T*(S(el)+S(vib)+S(rot)+S(trans))
     S(el)   - electronic entropy
     S(vib)  - vibrational entropy
     S(rot)  - rotational entropy
     S(trans)- translational entropy
The entropies will be listed as multiplied by the temperature to get
units of energy

Electronic entropy                ...      0.00000000 Eh      0.00 kcal/mol
Vibrational entropy               ...      0.00005483 Eh      0.03 kcal/mol
Rotational entropy                ...      0.00749549 Eh      4.70 kcal/mol
Translational entropy             ...      0.01701823 Eh     10.68 kcal/mol
-----------------------------------------------------------------------
Final entropy term                ...      0.02456855 Eh     15.42 kcal/mol

In case the symmetry of your molecule has not been determined correctly
or in case you have a reason to use a different symmetry number we print 
out the resulting rotational entropy values for sn=1,12 :
 --------------------------------------------------------
|  sn= 1 | S(rot)=       0.00749549 Eh      4.70 kcal/mol|
|  sn= 2 | S(rot)=       0.00684103 Eh      4.29 kcal/mol|
|  sn= 3 | S(rot)=       0.00645820 Eh      4.05 kcal/mol|
|  sn= 4 | S(rot)=       0.00618657 Eh      3.88 kcal/mol|
|  sn= 5 | S(rot)=       0.00597589 Eh      3.75 kcal/mol|
|  sn= 6 | S(rot)=       0.00580374 Eh      3.64 kcal/mol|
|  sn= 7 | S(rot)=       0.00565819 Eh      3.55 kcal/mol|
|  sn= 8 | S(rot)=       0.00553212 Eh      3.47 kcal/mol|
|  sn= 9 | S(rot)=       0.00542091 Eh      3.40 kcal/mol|
|  sn=10 | S(rot)=       0.00532143 Eh      3.34 kcal/mol|
|  sn=11 | S(rot)=       0.00523144 Eh      3.28 kcal/mol|
|  sn=12 | S(rot)=       0.00514928 Eh      3.23 kcal/mol|
 --------------------------------------------------------


-------------------
GIBBS FREE ENERGY
-------------------

The Gibbs free energy is G = H - T*S

Total enthalpy                    ...    -93.23396788 Eh 
Total entropy correction          ...     -0.02456855 Eh    -15.42 kcal/mol
-----------------------------------------------------------------------
Final Gibbs free energy         ...    -93.25853643 Eh

For completeness - the Gibbs free energy minus the electronic energy
G-E(el)                           ...     -0.00496940 Eh     -3.12 kcal/mol



Timings for individual modules:

Sum of individual times         ...       72.533 sec (=   1.209 min)
GTO integral calculation        ...        4.519 sec (=   0.075 min)   6.2 %
SCF iterations                  ...        7.291 sec (=   0.122 min)  10.1 %
EPR/NMR calculation             ...        2.289 sec (=   0.038 min)   3.2 %
SCF Gradient evaluation         ...        4.005 sec (=   0.067 min)   5.5 %
Numerical frequency calculation ...       54.429 sec (=   0.907 min)  75.0 %
                             ****ORCA TERMINATED NORMALLY****
TOTAL RUN TIME: 0 days 0 hours 1 minutes 5 seconds 908 msec
