
                                 *****************
                                 * O   R   C   A *
                                 *****************

                                            #,                                       
                                            ###                                      
                                            ####                                     
                                            #####                                    
                                            ######                                   
                                           ########,                                 
                                     ,,################,,,,,                         
                               ,,#################################,,                 
                          ,,##########################################,,             
                       ,#########################################, ''#####,          
                    ,#############################################,,   '####,        
                  ,##################################################,,,,####,       
                ,###########''''           ''''###############################       
              ,#####''   ,,,,##########,,,,          '''####'''          '####       
            ,##' ,,,,###########################,,,                        '##       
           ' ,,###''''                  '''############,,,                           
         ,,##''                                '''############,,,,        ,,,,,,###''
      ,#''                                            '''#######################'''  
     '                                                          ''''####''''         
             ,#######,   #######,   ,#######,      ##                                
            ,#'     '#,  ##    ##  ,#'     '#,    #''#        ######   ,####,        
            ##       ##  ##   ,#'  ##            #'  '#       #        #'  '#        
            ##       ##  #######   ##           ,######,      #####,   #    #        
            '#,     ,#'  ##    ##  '#,     ,#' ,#      #,         ##   #,  ,#        
             '#######'   ##     ##  '#######'  #'      '#     #####' # '####'        



                  #######################################################
                  #                        -***-                        #
                  #          Department of theory and spectroscopy      #
                  #    Directorship and core code : Frank Neese         #
                  #        Max Planck Institute fuer Kohlenforschung    #
                  #                Kaiser Wilhelm Platz 1               #
                  #                 D-45470 Muelheim/Ruhr               #
                  #                      Germany                        #
                  #                                                     #
                  #                  All rights reserved                #
                  #                        -***-                        #
                  #######################################################


                         Program Version 5.0.3 -  RELEASE  -


 With contributions from (in alphabetic order):
   Daniel Aravena         : Magnetic Suceptibility
   Michael Atanasov       : Ab Initio Ligand Field Theory (pilot matlab implementation)
   Alexander A. Auer      : GIAO ZORA, VPT2 properties, NMR spectrum
   Ute Becker             : Parallelization
   Giovanni Bistoni       : ED, misc. LED, open-shell LED, HFLD
   Martin Brehm           : Molecular dynamics
   Dmytro Bykov           : SCF Hessian
   Vijay G. Chilkuri      : MRCI spin determinant printing, contributions to CSF-ICE
   Dipayan Datta          : RHF DLPNO-CCSD density
   Achintya Kumar Dutta   : EOM-CC, STEOM-CC
   Dmitry Ganyushin       : Spin-Orbit,Spin-Spin,Magnetic field MRCI
   Miquel Garcia          : C-PCM and meta-GGA Hessian, CC/C-PCM, Gaussian charge scheme
   Yang Guo               : DLPNO-NEVPT2, F12-NEVPT2, CIM, IAO-localization
   Andreas Hansen         : Spin unrestricted coupled pair/coupled cluster methods
   Benjamin Helmich-Paris : MC-RPA, TRAH-SCF, COSX integrals
   Lee Huntington         : MR-EOM, pCC
   Robert Izsak           : Overlap fitted RIJCOSX, COSX-SCS-MP3, EOM
   Marcus Kettner         : VPT2
   Christian Kollmar      : KDIIS, OOCD, Brueckner-CCSD(T), CCSD density, CASPT2, CASPT2-K
   Simone Kossmann        : Meta GGA functionals, TD-DFT gradient, OOMP2, MP2 Hessian
   Martin Krupicka        : Initial AUTO-CI
   Lucas Lang             : DCDCAS
   Marvin Lechner         : AUTO-CI (C++ implementation), FIC-MRCC
   Dagmar Lenk            : GEPOL surface, SMD
   Dimitrios Liakos       : Extrapolation schemes; Compound Job, initial MDCI parallelization
   Dimitrios Manganas     : Further ROCIS development; embedding schemes
   Dimitrios Pantazis     : SARC Basis sets
   Anastasios Papadopoulos: AUTO-CI, single reference methods and gradients
   Taras Petrenko         : DFT Hessian,TD-DFT gradient, ASA, ECA, R-Raman, ABS, FL, XAS/XES, NRVS
   Peter Pinski           : DLPNO-MP2, DLPNO-MP2 Gradient
   Christoph Reimann      : Effective Core Potentials
   Marius Retegan         : Local ZFS, SOC
   Christoph Riplinger    : Optimizer, TS searches, QM/MM, DLPNO-CCSD(T), (RO)-DLPNO pert. Triples
   Tobias Risthaus        : Range-separated hybrids, TD-DFT gradient, RPA, STAB
   Michael Roemelt        : Original ROCIS implementation
   Masaaki Saitow         : Open-shell DLPNO-CCSD energy and density
   Barbara Sandhoefer     : DKH picture change effects
   Avijit Sen             : IP-ROCIS
   Kantharuban Sivalingam : CASSCF convergence, NEVPT2, FIC-MRCI
   Bernardo de Souza      : ESD, SOC TD-DFT
   Georgi Stoychev        : AutoAux, RI-MP2 NMR, DLPNO-MP2 response
   Willem Van den Heuvel  : Paramagnetic NMR
   Boris Wezisla          : Elementary symmetry handling
   Frank Wennmohs         : Technical directorship


 We gratefully acknowledge several colleagues who have allowed us to
 interface, adapt or use parts of their codes:
   Stefan Grimme, W. Hujo, H. Kruse, P. Pracht,  : VdW corrections, initial TS optimization,
                  C. Bannwarth, S. Ehlert          DFT functionals, gCP, sTDA/sTD-DF
   Ed Valeev, F. Pavosevic, A. Kumar             : LibInt (2-el integral package), F12 methods
   Garnet Chan, S. Sharma, J. Yang, R. Olivares  : DMRG
   Ulf Ekstrom                                   : XCFun DFT Library
   Mihaly Kallay                                 : mrcc  (arbitrary order and MRCC methods)
   Jiri Pittner, Ondrej Demel                    : Mk-CCSD
   Frank Weinhold                                : gennbo (NPA and NBO analysis)
   Christopher J. Cramer and Donald G. Truhlar   : smd solvation model
   Lars Goerigk                                  : TD-DFT with DH, B97 family of functionals
   V. Asgeirsson, H. Jonsson                     : NEB implementation
   FAccTs GmbH                                   : IRC, NEB, NEB-TS, DLPNO-Multilevel, CI-OPT
                                                   MM, QMMM, 2- and 3-layer-ONIOM, Crystal-QMMM,
                                                   LR-CPCM, SF, NACMEs, symmetry and pop. for TD-DFT,
                                                   nearIR, NL-DFT gradient (VV10), updates on ESD,
                                                   ML-optimized integration grids
   S Lehtola, MJT Oliveira, MAL Marques          : LibXC Library
   Liviu Ungur et al                             : ANISO software


 Your calculation uses the libint2 library for the computation of 2-el integrals
 For citations please refer to: http://libint.valeyev.net

 Your ORCA version has been built with support for libXC version: 5.1.0
 For citations please refer to: https://tddft.org/programs/libxc/

 This ORCA versions uses:
   CBLAS   interface :  Fast vector & matrix operations
   LAPACKE interface :  Fast linear algebra routines
   Shared memory     :  Shared parallel matrices


SCAN-COORDS
================================================================================

----- Orbital basis set information -----
Your calculation utilizes the basis: def2-SVP
   F. Weigend and R. Ahlrichs, Phys. Chem. Chem. Phys. 7, 3297 (2005).

----- AuxJ basis set information -----
Your calculation utilizes the auxiliary basis: def2/J
   F. Weigend, Phys. Chem. Chem. Phys. 8, 1057 (2006).

================================================================================
                                        WARNINGS
                       Please study these warnings very carefully!
================================================================================


WARNING: Gradients are needed
  ===> : At least TightSCF should be used for SCF convergence

WARNING: your system is open-shell and RHF/RKS was chosen
  ===> : WILL SWITCH to UHF/UKS


WARNING: Geometry Optimization
  ===> : Switching off AutoStart
         For restart on a previous wavefunction, please use MOREAD

INFO   : the flag for use of the SHARK integral package has been found!

================================================================================
                                       INPUT FILE
================================================================================
NAME = CoMn_OPT.inp
|  1> ! PAL5 VWN
|  2> %method
|  3>         method DFT
|  4>         runtyp OPT
|  5> end
|  6> 
|  7> %scf                  
|  8>        MaxIter 500
|  9> end
| 10> %geom                  
| 11>        MaxIter 500
| 12>        Convergence loose                                                  
| 13> end
| 14> 
| 15> %basis
| 16>         basis "def2-SVP"
| 17> end
| 18> %output
| 19>         XYZFile true
| 20> end
| 21> %coords
| 22>         CTyp xyz
| 23>         Charge 0
| 24>         Mult 2
| 25>         Units Angs
| 26>         coords
| 27>         O      0.216214   -0.006219    1.965016
| 28> 	O      1.457860    1.465908    0.170578
| 29> 	O      1.461175   -1.657734    0.336658
| 30> 	O     -1.619033   -1.285334   -0.190267
| 31> 	O     -1.795432    1.335463   -0.018287
| 32> 	O     -0.178454   -0.282819   -2.151821
| 33> 	O      2.928865    0.033011    2.655076
| 34> 	Co     1.916410   -0.048912    1.128433
| 35> 	Mn    -0.107478   -0.107705    0.062356
| 36> 	O     -3.398012   -0.438743   -2.179417
| 37> 	Co    -1.827952    0.136125   -1.426456
| 38> 	H     -3.665118    0.296023   -2.786998
| 39> 	H      3.863775   -0.035801    2.336404
| 40>         end
| 41> endd                         ****END OF INPUT****
================================================================================

                       *****************************
                       * Geometry Optimization Run *
                       *****************************

Geometry optimization settings:
Update method            Update   .... BFGS
Choice of coordinates    CoordSys .... Z-matrix Internals
Initial Hessian          InHess   .... Almoef's Model

Convergence Tolerances:
Energy Change            TolE     ....  3.0000e-05 Eh
Max. Gradient            TolMAXG  ....  2.0000e-03 Eh/bohr
RMS Gradient             TolRMSG  ....  5.0000e-04 Eh/bohr
Max. Displacement        TolMAXD  ....  1.0000e-02 bohr
RMS Displacement         TolRMSD  ....  7.0000e-03 bohr
Strict Convergence                ....  False
------------------------------------------------------------------------------
                        ORCA OPTIMIZATION COORDINATE SETUP
------------------------------------------------------------------------------

The optimization will be done in new redundant internal coordinates
Making redundant internal coordinates   ...  (new redundants) done
Evaluating the initial hessian          ...  (Almloef) done
Evaluating the coordinates              ...  done
Calculating the B-matrix                .... done
Calculating the G-matrix                .... done
Diagonalizing the G-matrix              .... done
The first mode is                       ....  153
The number of degrees of freedom        ....   33

    -----------------------------------------------------------------
                    Redundant Internal Coordinates


    -----------------------------------------------------------------
         Definition                    Initial Value    Approx d2E/dq
    -----------------------------------------------------------------
      1. B(Co  7,O   6)                  1.8337         1.109488   
      2. B(Co  7,O   2)                  1.8500         1.045007   
      3. B(Co  7,O   1)                  1.8500         1.045028   
      4. B(Co  7,O   0)                  1.8954         0.884592   
      5. B(Mn  8,O   1)                  2.2222         0.266225   
      6. B(Mn  8,O   2)                  2.2223         0.266170   
      7. B(Mn  8,O   0)                  1.9327         0.771284   
      8. B(Mn  8,O   4)                  2.2223         0.266187   
      9. B(Mn  8,O   5)                  2.2222         0.266219   
     10. B(Mn  8,Co  7)                  2.2883         2.359846   
     11. B(Mn  8,O   3)                  1.9327         0.771111   
     12. B(Co 10,O   5)                  1.8500         1.044947   
     13. B(Co 10,O   4)                  1.8500         1.045054   
     14. B(Co 10,Mn  8)                  2.2882         2.359949   
     15. B(Co 10,O   3)                  1.8954         0.884595   
     16. B(Co 10,O   9)                  1.8337         1.109381   
     17. B(H  11,O   9)                  0.9901         0.465454   
     18. B(H  12,O   6)                  0.9901         0.465487   
     19. A(Co  7,O   0,Mn  8)           73.4126         0.607000   
     20. A(Co  7,O   1,Mn  8)           67.6650         0.511818   
     21. A(Co  7,O   2,Mn  8)           67.6636         0.511796   
     22. A(Mn  8,O   3,Co 10)           73.4108         0.606974   
     23. A(Mn  8,O   4,Co 10)           67.6638         0.511806   
     24. A(Mn  8,O   5,Co 10)           67.6641         0.511808   
     25. A(Co  7,O   6,H  12)          104.4946         0.451088   
     26. A(O   2,Co  7,O   6)          122.0760         0.673052   
     27. A(O   6,Co  7,Mn  8)          151.3277         0.875239   
     28. A(O   1,Co  7,O   2)          115.4355         0.665193   
     29. A(O   1,Co  7,O   6)          122.0961         0.673055   
     30. A(O   0,Co  7,Mn  8)           54.0427         0.835943   
     31. A(O   1,Co  7,Mn  8)           63.9335         0.864659   
     32. A(O   0,Co  7,O   2)           89.2987         0.643862   
     33. A(O   0,Co  7,O   6)           97.2850         0.651432   
     34. A(O   0,Co  7,O   1)           89.2978         0.643864   
     35. A(O   2,Co  7,Mn  8)           63.9353         0.864656   
     36. A(O   2,Mn  8,O   3)           98.2329         0.483688   
     37. A(O   0,Mn  8,Co  7)           52.5447         0.813126   
     38. A(O   1,Mn  8,O   3)          171.3929         0.483706   
     39. A(O   4,Mn  8,O   5)           89.4704         0.399256   
     40. A(O   0,Mn  8,O   3)          106.9575         0.591151   
     41. A(O   1,Mn  8,O   2)           89.4662         0.399253   
     42. A(O   3,Mn  8,O   5)           78.2742         0.483704   
     43. A(O   2,Mn  8,O   5)           95.1963         0.399251   
     44. A(O   0,Mn  8,O   2)           78.2809         0.483708   
     45. A(O   1,Mn  8,O   5)           97.2860         0.399266   
     46. A(O   0,Mn  8,Co 10)          139.5407         0.813133   
     47. A(O   1,Mn  8,Co  7)           48.4015         0.658186   
     48. A(O   2,Mn  8,Co  7)           48.4011         0.658159   
     49. A(O   0,Mn  8,O   5)          172.0534         0.483724   
     50. A(O   3,Mn  8,O   4)           78.2821         0.483694   
     51. A(O   2,Mn  8,O   4)          173.5172         0.399243   
     52. A(O   0,Mn  8,O   1)           78.2814         0.483726   
     53. A(O   5,Mn  8,Co  7)          119.6353         0.658183   
     54. A(O   1,Mn  8,O   4)           94.4127         0.399257   
     55. A(O   4,Mn  8,Co  7)          132.2243         0.658167   
     56. A(O   3,Mn  8,Co  7)          140.1997         0.813089   
     57. A(O   0,Mn  8,O   4)           97.4026         0.483714   
     58. A(Co  7,Mn  8,Co 10)          164.8838         1.133181   
     59. A(O   1,Mn  8,Co 10)          119.0684         0.658191   
     60. A(O   2,Mn  8,Co 10)          133.2644         0.658165   
     61. A(O   3,Mn  8,Co 10)           52.5443         0.813096   
     62. A(O   4,Mn  8,Co 10)           48.4011         0.658173   
     63. A(O   5,Mn  8,Co 10)           48.4022         0.658188   
     64. A(Co 10,O   9,H  11)          104.4956         0.451074   
     65. A(Mn  8,Co 10,O   9)          151.3457         0.875229   
     66. A(O   5,Co 10,O   9)          122.1019         0.673032   
     67. A(O   4,Co 10,O   9)          122.0629         0.673046   
     68. A(O   3,Co 10,O   9)           97.3008         0.651421   
     69. A(O   5,Co 10,Mn  8)           63.9337         0.864653   
     70. A(O   4,Co 10,Mn  8)           63.9351         0.864671   
     71. A(O   3,Co 10,Mn  8)           54.0449         0.835951   
     72. A(O   4,Co 10,O   5)          115.4415         0.665189   
     73. A(O   3,Co 10,O   5)           89.2902         0.643855   
     74. A(O   3,Co 10,O   4)           89.3015         0.643868   
     75. D(O   6,Co  7,O   0,Mn  8)   -179.9907         0.005101   
     76. D(O   0,Co  7,O   6,H  12)    176.8452         0.007230   
     77. D(Mn  8,Co  7,O   6,H  12)    176.8296         0.007230   
     78. D(O   6,Co  7,O   2,Mn  8)    147.7930         0.006566   
     79. D(O   2,Co  7,O   6,H  12)     83.0865         0.007230   
     80. D(O   1,Co  7,O   2,Mn  8)    -39.2588         0.006566   
     81. D(O   2,Co  7,O   0,Mn  8)    -57.7254         0.005101   
     82. D(O   1,Co  7,O   0,Mn  8)     57.7237         0.005101   
     83. D(O   0,Co  7,O   2,Mn  8)     49.6299         0.006566   
     84. D(O   0,Co  7,O   1,Mn  8)    -49.6298         0.006566   
     85. D(O   6,Co  7,O   1,Mn  8)   -147.7938         0.006566   
     86. D(O   2,Co  7,O   1,Mn  8)     39.2595         0.006566   
     87. D(O   1,Co  7,O   6,H  12)    -89.3937         0.007230   
     88. D(O   2,Mn  8,O   0,Co  7)     45.9544         0.004839   
     89. D(O   3,Mn  8,O   2,Co  7)   -155.4522         0.001901   
     90. D(O   1,Mn  8,O   0,Co  7)    -45.9545         0.004839   
     91. D(O   0,Mn  8,Co  7,O   6)      0.0192         0.004969   
     92. D(Co  7,Mn  8,O   5,Co 10)   -168.5729         0.001902   
     93. D(O   4,Mn  8,O   5,Co 10)    -28.4029         0.001902   
     94. D(O   2,Mn  8,O   1,Co  7)    -28.4098         0.001902   
     95. D(O   4,Mn  8,O   1,Co  7)    146.3900         0.001902   
     96. D(O   0,Mn  8,O   5,Co 10)   -178.3719         0.001902   
     97. D(O   5,Mn  8,O   1,Co  7)   -123.5802         0.001902   
     98. D(Co  7,Mn  8,O   4,Co 10)    159.6565         0.001902   
     99. D(O   5,Mn  8,O   4,Co 10)     28.4035         0.001902   
    100. D(O   3,Mn  8,O   4,Co 10)    -49.7292         0.001902   
    101. D(O   2,Mn  8,Co  7,O   0)   -109.7541         0.004969   
    102. D(O   4,Mn  8,O   2,Co  7)    -98.4234         0.001901   
    103. D(O   5,Mn  8,O   2,Co  7)    125.6776         0.001901   
    104. D(Co 10,Mn  8,O   2,Co  7)    159.5924         0.001901   
    105. D(Co 10,Mn  8,O   1,Co  7)   -169.5780         0.001902   
    106. D(O   2,Mn  8,O   4,Co 10)   -107.7209         0.001902   
    107. D(O   1,Mn  8,Co  7,O   0)    109.7546         0.004969   
    108. D(O   0,Mn  8,Co  7,O   1)   -109.7546         0.004969   
    109. D(O   1,Mn  8,O   4,Co 10)    125.6704         0.001902   
    110. D(Co 10,Mn  8,O   0,Co  7)   -167.3838         0.004839   
    111. D(O   0,Mn  8,O   4,Co 10)   -155.5974         0.001902   
    112. D(O   5,Mn  8,O   0,Co  7)     10.7399         0.004839   
    113. D(O   0,Mn  8,O   1,Co  7)     49.7306         0.001902   
    114. D(O   1,Mn  8,Co  7,O   2)   -140.4913         0.004969   
    115. D(O   0,Mn  8,O   2,Co  7)    -49.7309         0.001901   
    116. D(O   0,Mn  8,Co  7,O   2)    109.7541         0.004969   
    117. D(O   3,Mn  8,O   1,Co  7)    178.0415         0.001902   
    118. D(O   1,Mn  8,O   5,Co 10)   -122.7839         0.001902   
    119. D(O   2,Mn  8,O   5,Co 10)    147.0903         0.001902   
    120. D(O   3,Mn  8,O   5,Co 10)     49.7375         0.001902   
    121. D(Co 10,Mn  8,Co  7,O   1)     37.3229         0.004969   
    122. D(O   5,Mn  8,O   3,Co 10)    -45.9615         0.004837   
    123. D(O   1,Mn  8,Co  7,O   6)    109.7737         0.004969   
    124. D(O   4,Mn  8,O   3,Co 10)     45.9532         0.004837   
    125. D(O   2,Mn  8,O   3,Co 10)   -139.5982         0.004837   
    126. D(O   4,Mn  8,O   0,Co  7)   -138.9518         0.004839   
    127. D(O   1,Mn  8,O   3,Co 10)     13.6545         0.004837   
    128. D(O   4,Mn  8,Co  7,O   2)    171.3254         0.004969   
    129. D(O   4,Mn  8,Co  7,O   1)    -48.1833         0.004969   
    130. D(O   2,Mn  8,Co  7,O   1)    140.4913         0.004969   
    131. D(O   2,Mn  8,Co  7,O   6)   -109.7350         0.004969   
    132. D(O   3,Mn  8,Co  7,O   0)    -69.7876         0.004969   
    133. D(O   3,Mn  8,Co  7,O   1)   -179.5422         0.004969   
    134. D(O   3,Mn  8,Co  7,O   2)     39.9665         0.004969   
    135. D(O   3,Mn  8,Co  7,O   6)    -69.7685         0.004969   
    136. D(O   4,Mn  8,Co  7,O   0)     61.5712         0.004969   
    137. D(O   0,Mn  8,O   3,Co 10)    140.2152         0.004837   
    138. D(O   3,Mn  8,O   0,Co  7)    141.0974         0.004839   
    139. D(O   4,Mn  8,Co  7,O   6)     61.5904         0.004969   
    140. D(O   5,Mn  8,Co  7,O   0)   -178.3015         0.004969   
    141. D(O   5,Mn  8,Co  7,O   1)     71.9439         0.004969   
    142. D(O   5,Mn  8,Co  7,O   2)    -68.5474         0.004969   
    143. D(O   5,Mn  8,Co  7,O   6)   -178.2823         0.004969   
    144. D(Co 10,Mn  8,Co  7,O   0)    147.0775         0.004969   
    145. D(O   1,Mn  8,O   2,Co  7)     28.4100         0.001901   
    146. D(Co 10,Mn  8,Co  7,O   2)   -103.1684         0.004969   
    147. D(Co 10,Mn  8,Co  7,O   6)    147.0967         0.004969   
    148. D(Co  7,Mn  8,O   3,Co 10)   -168.6336         0.004837   
    149. D(Mn  8,Co 10,O   9,H  11)    173.7554         0.007229   
    150. D(O   4,Co 10,O   9,H  11)     80.0239         0.007229   
    151. D(O   3,Co 10,O   9,H  11)    173.7938         0.007229   
    152. D(O   9,Co 10,Mn  8,Co  7)    151.1154         0.004969   
    153. D(O   9,Co 10,Mn  8,O   4)   -109.7096         0.004969   
    154. D(O   9,Co 10,Mn  8,O   3)      0.0471         0.004969   
    155. D(O   9,Co 10,Mn  8,O   2)     61.7973         0.004969   
    156. D(O   9,Co 10,Mn  8,O   0)    -70.5581         0.004969   
    157. D(O   5,Co 10,Mn  8,Co  7)     41.3267         0.004969   
    158. D(O   5,Co 10,Mn  8,O   4)    140.5017         0.004969   
    159. D(O   5,Co 10,Mn  8,O   3)   -109.7416         0.004969   
    160. D(O   5,Co 10,Mn  8,O   2)    -47.9914         0.004969   
    161. D(O   5,Co 10,Mn  8,O   1)     72.5750         0.004969   
    162. D(O   5,Co 10,Mn  8,O   0)    179.6532         0.004969   
    163. D(O   4,Co 10,Mn  8,O   5)   -140.5017         0.004969   
    164. D(O   4,Co 10,Mn  8,O   3)    109.7567         0.004969   
    165. D(O   4,Co 10,Mn  8,O   2)    171.5069         0.004969   
    166. D(O   4,Co 10,Mn  8,O   1)    -67.9268         0.004969   
    167. D(O   4,Co 10,Mn  8,O   0)     39.1515         0.004969   
    168. D(O   4,Co 10,Mn  8,Co  7)    -99.1750         0.004969   
    169. D(O   3,Co 10,Mn  8,Co  7)    151.0683         0.004969   
    170. D(O   3,Co 10,Mn  8,O   5)    109.7416         0.004969   
    171. D(O   3,Co 10,Mn  8,O   4)   -109.7567         0.004969   
    172. D(O   3,Co 10,Mn  8,O   2)     61.7502         0.004969   
    173. D(O   3,Co 10,Mn  8,O   1)   -177.6834         0.004969   
    174. D(O   3,Co 10,Mn  8,O   0)    -70.6052         0.004969   
    175. D(O   9,Co 10,O   5,Mn  8)   -147.8156         0.006565   
    176. D(O   9,Co 10,Mn  8,O   1)   -177.6364         0.004969   
    177. D(O   4,Co 10,O   5,Mn  8)     39.2515         0.006565   
    178. D(O   3,Co 10,O   5,Mn  8)    -49.6372         0.006565   
    179. D(O   9,Co 10,O   4,Mn  8)    147.8131         0.006566   
    180. D(O   9,Co 10,Mn  8,O   5)    109.7887         0.004969   
    181. D(O   5,Co 10,O   4,Mn  8)    -39.2509         0.006566   
    182. D(O   3,Co 10,O   4,Mn  8)     49.6307         0.006566   
    183. D(O   9,Co 10,O   3,Mn  8)   -179.9773         0.005101   
    184. D(O   5,Co 10,O   9,H  11)    -92.4431         0.007229   
    185. D(O   5,Co 10,O   3,Mn  8)     57.7314         0.005101   
    186. D(O   4,Co 10,O   3,Mn  8)    -57.7238         0.005101   
    -----------------------------------------------------------------

Number of atoms                         .... 13
Number of degrees of freedom            .... 186

         *************************************************************
         *                GEOMETRY OPTIMIZATION CYCLE   1            *
         *************************************************************
---------------------------------
CARTESIAN COORDINATES (ANGSTROEM)
---------------------------------
  O      0.216214   -0.006219    1.965016
  O      1.457860    1.465908    0.170578
  O      1.461175   -1.657734    0.336658
  O     -1.619033   -1.285334   -0.190267
  O     -1.795432    1.335463   -0.018287
  O     -0.178454   -0.282819   -2.151821
  O      2.928865    0.033011    2.655076
  Co     1.916410   -0.048912    1.128433
  Mn    -0.107478   -0.107705    0.062356
  O     -3.398012   -0.438743   -2.179417
  Co    -1.827952    0.136125   -1.426456
  H     -3.665118    0.296023   -2.786998
  H      3.863775   -0.035801    2.336404

----------------------------
CARTESIAN COORDINATES (A.U.)
----------------------------
  NO LB      ZA    FRAG     MASS         X           Y           Z
   0 O     8.0000    0    15.999    0.408585   -0.011752    3.713342
   1 O     8.0000    0    15.999    2.754956    2.770165    0.322346
   2 O     8.0000    0    15.999    2.761221   -3.132663    0.636191
   3 O     8.0000    0    15.999   -3.059529   -2.428929   -0.359553
   4 O     8.0000    0    15.999   -3.392875    2.523659   -0.034557
   5 O     8.0000    0    15.999   -0.337229   -0.534450   -4.066352
   6 O     8.0000    0    15.999    5.534753    0.062382    5.017367
   7 Co   27.0000    0    58.930    3.621490   -0.092430    2.132429
   8 Mn   25.0000    0    54.940   -0.203104   -0.203533    0.117836
   9 O     8.0000    0    15.999   -6.421312   -0.829104   -4.118501
  10 Co   27.0000    0    58.930   -3.454329    0.257239   -2.695611
  11 H     1.0000    0     1.008   -6.926069    0.559402   -5.266663
  12 H     1.0000    0     1.008    7.301477   -0.067654    4.415164

--------------------------------
INTERNAL COORDINATES (ANGSTROEM)
--------------------------------
 O      0   0   0     0.000000000000     0.00000000     0.00000000
 O      1   0   0     2.632270964261     0.00000000     0.00000000
 O      1   2   0     2.632295474089    72.90719715     0.00000000
 O      1   2   3     3.106366292684    92.06211494   295.99803715
 O      4   1   2     2.632350782629    65.43634172   300.82195355
 O      4   1   2     2.632109092607    92.11363158    10.93474705
 O      1   2   3     2.799320854118    72.72926732    76.71338657
 Co     7   1   2     1.833689001549    42.19145714   321.52604560
 Mn     1   2   3     1.932664221912    55.75355561   300.19071432
 O      4   1   2     2.799678611238   138.06066238   304.72821162
 Co    10   4   1     1.833715323747    42.18296082    34.77288873
 H     10   4   1     0.990142091597   146.28319997    23.90432936
 H      7   1   2     0.990123044388   146.58339540   315.97406516

---------------------------
INTERNAL COORDINATES (A.U.)
---------------------------
 O      0   0   0     0.000000000000     0.00000000     0.00000000
 O      1   0   0     4.974271232725     0.00000000     0.00000000
 O      1   2   0     4.974317549589    72.90719715     0.00000000
 O      1   2   3     5.870181564817    92.06211494   295.99803715
 O      4   1   2     4.974422067583    65.43634172   300.82195355
 O      4   1   2     4.973965339630    92.11363158    10.93474705
 O      1   2   3     5.289949775258    72.72926732    76.71338657
 Co     7   1   2     3.465170027712    42.19145714   321.52604560
 Mn     1   2   3     3.652206088242    55.75355561   300.19071432
 O      4   1   2     5.290625838236   138.06066238   304.72821162
 Co    10   4   1     3.465219769457    42.18296082    34.77288873
 H     10   4   1     1.871097386787   146.28319997    23.90432936
 H      7   1   2     1.871061392778   146.58339540   315.97406516

---------------------
BASIS SET INFORMATION
---------------------
There are 4 groups of distinct atoms

 Group   1 Type O   : 7s4p1d contracted to 3s2p1d pattern {511/31/1}
 Group   2 Type Co  : 14s9p5d1f contracted to 5s3p2d1f pattern {63311/531/41/1}
 Group   3 Type Mn  : 14s9p5d1f contracted to 5s3p2d1f pattern {63311/531/41/1}
 Group   4 Type H   : 4s1p contracted to 2s1p pattern {31/1}

Atom   0O    basis set group =>   1
Atom   1O    basis set group =>   1
Atom   2O    basis set group =>   1
Atom   3O    basis set group =>   1
Atom   4O    basis set group =>   1
Atom   5O    basis set group =>   1
Atom   6O    basis set group =>   1
Atom   7Co   basis set group =>   2
Atom   8Mn   basis set group =>   3
Atom   9O    basis set group =>   1
Atom  10Co   basis set group =>   2
Atom  11H    basis set group =>   4
Atom  12H    basis set group =>   4
---------------------------------
AUXILIARY/J BASIS SET INFORMATION
---------------------------------
There are 4 groups of distinct atoms

 Group   1 Type O   : 12s5p4d2f1g contracted to 6s4p3d1f1g pattern {711111/2111/211/2/1}
 Group   2 Type Co  : 19s5p5d3f3g contracted to 8s5p5d2f3g pattern {121111111/11111/11111/21/111}
 Group   3 Type Mn  : 19s5p5d3f3g contracted to 8s5p5d2f3g pattern {121111111/11111/11111/21/111}
 Group   4 Type H   : 5s2p1d contracted to 3s1p1d pattern {311/2/1}

Atom   0O    basis set group =>   1
Atom   1O    basis set group =>   1
Atom   2O    basis set group =>   1
Atom   3O    basis set group =>   1
Atom   4O    basis set group =>   1
Atom   5O    basis set group =>   1
Atom   6O    basis set group =>   1
Atom   7Co   basis set group =>   2
Atom   8Mn   basis set group =>   3
Atom   9O    basis set group =>   1
Atom  10Co   basis set group =>   2
Atom  11H    basis set group =>   4
Atom  12H    basis set group =>   4


           ************************************************************
           *        Program running with 5 parallel MPI-processes     *
           *              working on a common directory               *
           ************************************************************
------------------------------------------------------------------------------
                           ORCA GTO INTEGRAL CALCULATION
                           -- RI-GTO INTEGRALS CHOSEN --
------------------------------------------------------------------------------
------------------------------------------------------------------------------
                   ___                                                        
                  /   \      - P O W E R E D   B Y -                         
                 /     \                                                     
                 |  |  |   _    _      __       _____    __    __             
                 |  |  |  | |  | |    /  \     |  _  \  |  |  /  |          
                  \  \/   | |  | |   /    \    | | | |  |  | /  /          
                 / \  \   | |__| |  /  /\  \   | |_| |  |  |/  /          
                |  |  |   |  __  | /  /__\  \  |    /   |      \           
                |  |  |   | |  | | |   __   |  |    \   |  |\   \          
                \     /   | |  | | |  |  |  |  | |\  \  |  | \   \       
                 \___/    |_|  |_| |__|  |__|  |_| \__\ |__|  \__/        
                                                                              
                      - O R C A' S   B I G   F R I E N D -                    
                                      &                                       
                       - I N T E G R A L  F E E D E R -                       
                                                                              
 v1 FN, 2020, v2 2021                                                         
------------------------------------------------------------------------------


Reading SHARK input file CoMn_OPT.SHARKINP.tmp ... ok
----------------------
SHARK INTEGRAL PACKAGE
----------------------

Number of atoms                             ...     13
Number of basis functions                   ...    215
Number of shells                            ...     87
Maximum angular momentum                    ...      3
Integral batch strategy                     ... SHARK/LIBINT Hybrid
RI-J (if used) integral strategy            ... SPLIT-RIJ (Revised 2003 algorithm where possible)
Printlevel                                  ...      1
Contraction scheme used                     ... SEGMENTED contraction
Coulomb Range Separation                    ... NOT USED
Exchange Range Separation                   ... NOT USED
Finite Nucleus Model                        ... NOT USED
Auxiliary Coulomb fitting basis             ... AVAILABLE
   # of basis functions in Aux-J            ...    681
   # of shells in Aux-J                     ...    199
   Maximum angular momentum in Aux-J        ...      4
Auxiliary J/K fitting basis                 ... NOT available
Auxiliary Correlation fitting basis         ... NOT available
Auxiliary 'external' fitting basis          ... NOT available
Integral threshold                          ...     1.000000e-10
Primitive cut-off                           ...     1.000000e-11
Primitive pair pre-selection threshold      ...     1.000000e-11

Calculating pre-screening integrals         ... done (  0.0 sec) Dimension = 87
Organizing shell pair data                  ... done (  0.0 sec)
Shell pair information
Total number of shell pairs                 ...      3828
Shell pairs after pre-screening             ...      3008
Total number of primitive shell pairs       ...     18951
Primitive shell pairs kept                  ...      9489
          la=0 lb=0:    711 shell pairs
          la=1 lb=0:    917 shell pairs
          la=1 lb=1:    327 shell pairs
          la=2 lb=0:    464 shell pairs
          la=2 lb=1:    312 shell pairs
          la=2 lb=2:     82 shell pairs
          la=3 lb=0:     99 shell pairs
          la=3 lb=1:     61 shell pairs
          la=3 lb=2:     30 shell pairs
          la=3 lb=3:      5 shell pairs

Calculating one electron integrals          ... done (  0.0 sec)
Calculating RI/J V-Matrix + Cholesky decomp.... done (  0.0 sec)
Calculating Nuclear repulsion               ... done (  0.0 sec) ENN=   1761.152348093701 Eh

SHARK setup successfully completed in   0.2 seconds

Maximum memory used throughout the entire GTOINT-calculation: 16.9 MB


           ************************************************************
           *        Program running with 5 parallel MPI-processes     *
           *              working on a common directory               *
           ************************************************************
-------------------------------------------------------------------------------
                                 ORCA SCF
-------------------------------------------------------------------------------

------------
SCF SETTINGS
------------
Hamiltonian:
 Density Functional     Method          .... DFT(GTOs)
 Exchange Functional    Exchange        .... Slater
   X-Alpha parameter    XAlpha          ....  0.666667
 Correlation Functional Correlation     .... VWN-5
 Gradients option       PostSCFGGA      .... off
   Density functional embedding theory  .... OFF
 RI-approximation to the Coulomb term is turned on
   Number of AuxJ basis functions       .... 681


General Settings:
 Integral files         IntName         .... CoMn_OPT
 Hartree-Fock type      HFTyp           .... UHF
 Total Charge           Charge          ....    0
 Multiplicity           Mult            ....    2
 Number of Electrons    NEL             ....  145
 Basis Dimension        Dim             ....  215
 Nuclear Repulsion      ENuc            ....   1761.1523480937 Eh

Convergence Acceleration:
 DIIS                   CNVDIIS         .... on
   Start iteration      DIISMaxIt       ....    12
   Startup error        DIISStart       ....  0.200000
   # of expansion vecs  DIISMaxEq       ....     5
   Bias factor          DIISBfac        ....   1.050
   Max. coefficient     DIISMaxC        ....  10.000
 Trust-Rad. Augm. Hess. CNVTRAH         .... auto
   Auto Start mean grad. ratio tolernc. ....  1.125000
   Auto Start start iteration           ....    20
   Auto Start num. interpolation iter.  ....    10
   Max. Number of Micro iterations      ....    16
   Max. Number of Macro iterations      .... Maxiter - #DIIS iter
   Number of Davidson start vectors     ....     2
   Converg. threshold I  (grad. norm)   ....   5.000e-05
   Converg. threshold II (energy diff.) ....   1.000e-06
   Grad. Scal. Fac. for Micro threshold ....   0.100
   Minimum threshold for Micro iter.    ....   0.010
   NR start threshold (gradient norm)   ....   0.001
   Initial trust radius                 ....   0.400
   Minimum AH scaling param. (alpha)    ....   1.000
   Maximum AH scaling param. (alpha)    .... 1000.000
   Orbital update algorithm             .... Taylor
   White noise on init. David. guess    .... on
   Maximum white noise                  ....   0.010
   Quad. conv. algorithm                .... NR
 SOSCF                  CNVSOSCF        .... off
 Level Shifting         CNVShift        .... on
   Level shift para.    LevelShift      ....    0.2500
   Turn off err/grad.   ShiftErr        ....    0.0010
 Zerner damping         CNVZerner       .... off
 Static damping         CNVDamp         .... on
   Fraction old density DampFac         ....    0.7000
   Max. Damping (<1)    DampMax         ....    0.9800
   Min. Damping (>=0)   DampMin         ....    0.0000
   Turn off err/grad.   DampErr         ....    0.1000
 Fernandez-Rico         CNVRico         .... off

SCF Procedure:
 Maximum # iterations   MaxIter         ....   500
 SCF integral mode      SCFMode         .... Direct
   Integral package                     .... SHARK and LIBINT hybrid scheme
 Reset frequency        DirectResetFreq ....    20
 Integral Threshold     Thresh          ....  1.000e-10 Eh
 Primitive CutOff       TCut            ....  1.000e-11 Eh

Convergence Tolerance:
 Convergence Check Mode ConvCheckMode   .... Total+1el-Energy
 Convergence forced     ConvForced      .... 0
 Energy Change          TolE            ....  1.000e-06 Eh
 1-El. energy change                    ....  1.000e-03 Eh
 DIIS Error             TolErr          ....  1.000e-06


Diagonalization of the overlap matrix:
Smallest eigenvalue                        ... 1.260e-02
Time for diagonalization                   ...    0.004 sec
Threshold for overlap eigenvalues          ... 1.000e-08
Number of eigenvalues below threshold      ... 0
Time for construction of square roots      ...    0.008 sec
Total time needed                          ...    0.013 sec

Time for model grid setup =    0.092 sec

------------------------------
INITIAL GUESS: MODEL POTENTIAL
------------------------------
Loading Hartree-Fock densities                     ... done
Calculating cut-offs                               ... done
Initializing the effective Hamiltonian             ... done
Setting up the integral package (SHARK)            ... done
Starting the Coulomb interaction                   ... done (   0.1 sec)
Reading the grid                                   ... done
Mapping shells                                     ... done
Starting the XC term evaluation                    ... done (   0.0 sec)
  promolecular density results
     # of electrons  =    144.999276930
     EX              =   -215.863709784
     EC              =    -11.357592909
     EX+EC           =   -227.221302693
Transforming the Hamiltonian                       ... done (   0.0 sec)
Diagonalizing the Hamiltonian                      ... done (   0.0 sec)
Back transforming the eigenvectors                 ... done (   0.0 sec)
Now organizing SCF variables                       ... done
                      ------------------
                      INITIAL GUESS DONE (   0.2 sec)
                      ------------------
-------------------
DFT GRID GENERATION
-------------------

General Integration Accuracy     IntAcc      ... 4.388
Radial Grid Type                 RadialGrid  ... OptM3 with GC (2021)
Angular Grid (max. ang.)         AngularGrid ... 4 (Lebedev-302)
Angular grid pruning method      GridPruning ... 4 (adaptive)
Weight generation scheme         WeightScheme... Becke
Basis function cutoff            BFCut       ... 1.0000e-10
Integration weight cutoff        WCut        ... 1.0000e-14
Angular grids for H and He will be reduced by one unit
Partially contracted basis set               ... off
Rotationally invariant grid construction     ... off

Total number of grid points                  ...    88782
Total number of batches                      ...     1394
Average number of points per batch           ...       63
Average number of grid points per atom       ...     6829
Time for grid setup =    0.380 sec

--------------
SCF ITERATIONS
--------------
ITER       Energy         Delta-E        Max-DP      RMS-DP      [F,P]     Damp
               ***  Starting incremental Fock matrix formation  ***
  0  -4502.7815915866   0.000000000000 0.93206486  0.00883698  0.4044981 0.7000
  1  -4504.8721041552  -2.090512568629 0.19794944  0.00245685  0.1047539 0.7000
                               ***Turning on DIIS***
  2  -4505.1857185107  -0.313614355509 0.18355745  0.00323680  0.1332417 0.7000
  3  -4504.1995916125   0.986126898223 0.13034146  0.00211652  0.2155906 0.7000
  4  -4501.6642956562   2.535295956372 0.10881517  0.00151377  0.3693265 0.7000
  5  -4500.1940779673   1.470217688878 0.08088078  0.00117549  0.5091503 0.7000
  6  -4499.7265155233   0.467562444024 0.05889249  0.00098084  0.6121409 0.7000
  7  -4499.7278646098  -0.001349086564 0.09934543  0.00193851  0.6831323 0.7000
  8  -4501.4222489306  -1.694384320826 0.19103709  0.00378938  0.6442012 0.7000
  9  -4505.0104837397  -3.588234809033 0.13391474  0.00213811  0.2046232 0.7000
 10  -4504.8618081420   0.148675597656 0.09299121  0.00170319  0.2685279 0.7000
 11  -4504.3211386228   0.540669519212 0.07812013  0.00148595  0.2221927 0.7000
 12  -4504.0124877490   0.308650873795 0.06885209  0.00151710  0.1987726 0.7000
 13  -4504.7551890938  -0.742701344753 0.04307792  0.00101658  0.2026071 0.7000
 14  -4505.1304592103  -0.375270116507 0.08333029  0.00145446  0.1949828 0.7000
 15  -4505.6991300574  -0.568670847161 0.13547202  0.00192558  0.1710188 0.7000
 16  -4505.7877995031  -0.088669445628 0.11512311  0.00182212  0.1975501 0.7000
 17  -4504.8959794965   0.891820006588 0.06816406  0.00137356  0.3302806 0.7000
 18  -4503.7639980061   1.131981490332 0.06132880  0.00117891  0.4686861 0.7000
 19  -4503.0752297852   0.688768220979 0.06348540  0.00130954  0.5234031 0.7000
               *** Restarting incremental Fock matrix formation ***
                                   *** Resetting DIIS ***

 WARNING: the maximum gradient error descreased on average only by a factor   0.9
          during the last 20 iterations

                      *** Initiating the TRAH-SCF procedure ***


TRAH GRID
---------

General Integration Accuracy     IntAcc      ... 3.467
Radial Grid Type                 RadialGrid  ... OptM3 with GC (2021)
Angular Grid (max. ang.)         AngularGrid ... 1 (Lebedev-50)
Angular grid pruning method      GridPruning ... 4 (adaptive)
Weight generation scheme         WeightScheme... Becke
Basis function cutoff            BFCut       ... 1.0000e-10
Integration weight cutoff        WCut        ... 1.0000e-14
Angular grids for H and He will be reduced by one unit
Partially contracted basis set               ... off
Rotationally invariant grid construction     ... off

Total number of grid points                  ...    21252
Total number of batches                      ...      339
Average number of points per batch           ...       62
Average number of grid points per atom       ...     1635

 --------------------------------------------------------------------------------------------
   Iter.        energy            ||Error||_2        Shift      TRadius  Mac/Mic        Rej.
 --------------------------------------------------------------------------------------------
WARNING: 1102 diagonal Hessian elements are negative!
    0      -4501.546165962984     4.058339e+00                     0.400 (TRAH MAcro)   No
WARNING : negative HOMO - LUMO gap : (op = alpha) -1.519504
WARNING : negative HOMO - LUMO gap : (op =  beta) -1.654169
    0     dE    -2.691556e+00     6.175282e-01    -6.6764e+00      0.400 (TRAH MIcro)
    0     dE    -2.721910e+00     2.994469e-01    -6.9978e+00      0.400 (TRAH MIcro)
    0     dE    -2.725229e+00     1.855687e-01    -7.0222e+00      0.400 (TRAH MIcro)
    0     dE    -2.727961e+00     2.197301e-02    -7.0369e+00      0.400 (TRAH MIcro)
    0     dE    -2.728003e+00     1.025568e-02    -7.0374e+00      0.400 (TRAH MIcro)
    0     dE    -2.728005e+00     3.878207e-03    -7.0375e+00      0.400 (TRAH MIcro)
WARNING: 581 diagonal Hessian elements are negative!
    1      -4504.241264221137     2.696452e+00                     0.480 (TRAH MAcro)   No
WARNING : negative HOMO - LUMO gap : (op = alpha) -0.905033
WARNING : negative HOMO - LUMO gap : (op =  beta) -1.030420
    1     dE    -1.766570e+00     6.728196e-01    -2.0498e+00      0.480 (TRAH MIcro)
    1     dE    -1.867866e+00     1.371672e-01    -2.7904e+00      0.480 (TRAH MIcro)
    1     dE    -1.871204e+00     5.663517e-02    -2.7981e+00      0.480 (TRAH MIcro)
    1     dE    -1.871845e+00     1.223018e-02    -2.7970e+00      0.480 (TRAH MIcro)
    1     dE    -1.871882e+00     4.464353e-03    -2.7965e+00      0.480 (TRAH MIcro)
WARNING: 225 diagonal Hessian elements are negative!
    2      -4506.064597073463     1.203105e+00                     0.576 (TRAH MAcro)   No
WARNING : negative HOMO - LUMO gap : (op = alpha) -0.316100
WARNING : negative HOMO - LUMO gap : (op =  beta) -0.397040
    2     dE    -4.565693e-01     5.319351e-01    -4.0922e-01      0.340 (TRAH MIcro)
    2     dE    -6.451723e-01     2.002336e-01    -5.1650e-01      0.499 (TRAH MIcro)
    2     dE    -6.746809e-01     9.039902e-02    -5.2885e-01      0.525 (TRAH MIcro)
    2     dE    -6.860242e-01     5.565350e-02    -5.3235e-01      0.537 (TRAH MIcro)
    2     dE    -6.904472e-01     3.101843e-02    -5.3332e-01      0.543 (TRAH MIcro)
    2     dE    -6.924727e-01     1.385914e-02    -5.3366e-01      0.546 (TRAH MIcro)
    2     dE    -6.934380e-01     1.002501e-02    -5.3377e-01      0.547 (TRAH MIcro)
    2     dE    -6.939007e-01     5.272216e-03    -5.3381e-01      0.548 (TRAH MIcro)
WARNING: 23 diagonal Hessian elements are negative!
    3      -4506.721170065035     2.171277e-01                     0.691 (TRAH MAcro)   No
WARNING : negative HOMO - LUMO gap : (op = alpha) -0.033451
WARNING : negative HOMO - LUMO gap : (op =  beta) -0.041454
    3     dE    -3.609188e-02     1.943893e-01    -3.5169e-02      0.162 (TRAH MIcro)
    3     dE    -5.299337e-02     1.845402e-01    -4.9587e-02      0.262 (TRAH MIcro)
    3     dE    -6.219720e-02     1.576618e-01    -5.6261e-02      0.325 (TRAH MIcro)
    3     dE    -6.726555e-02     1.128724e-01    -5.9440e-02      0.363 (TRAH MIcro)
    3     dE    -7.178785e-02     4.044256e-02    -6.1599e-02      0.407 (TRAH MIcro)
    3     dE    -7.214357e-02     3.370204e-02    -6.1797e-02      0.409 (TRAH MIcro)
    3     dE    -7.230109e-02     3.226917e-02    -6.2034e-02      0.407 (TRAH MIcro)
    3     dE    -7.246364e-02     3.115679e-02    -6.2333e-02      0.403 (TRAH MIcro)
    3     dE    -7.299337e-02     3.674318e-02    -6.2719e-02      0.405 (TRAH MIcro)
    3     dE    -7.523037e-02     3.169437e-02    -6.3651e-02      0.427 (TRAH MIcro)
    3     dE    -7.706678e-02     1.628243e-02    -6.4095e-02      0.450 (TRAH MIcro)
    3     dE    -7.731504e-02     1.359725e-02    -6.4143e-02      0.453 (TRAH MIcro)
    3     dE    -7.758120e-02     1.089953e-02    -6.4191e-02      0.457 (TRAH MIcro)
    3     dE    -7.773305e-02     1.194217e-02    -6.4219e-02      0.459 (TRAH MIcro)
    4      -4506.798656937830     4.177851e-02                     0.829 (TRAH MAcro)   No
WARNING : small    HOMO - LUMO gap : (op = alpha) 0.003057
WARNING : small    HOMO - LUMO gap : (op =  beta) 0.002545
    4     dE    -1.635670e-04     1.914968e-01    -1.6356e-04      0.004 (TRAH MIcro)
    4     dE    -2.011977e-03     1.509282e-01    -1.9832e-03      0.121 (TRAH MIcro)
    4     dE    -8.384992e-03     1.371552e-01    -7.1619e-03      0.413 (TRAH MIcro)
    4     dE    -1.902675e-02     7.108033e-02    -1.2017e-02      0.764 (TRAH MIcro)
    4     dE    -2.130662e-02     6.743588e-02    -1.3004e-02      0.799 (TRAH MIcro)
    4     dE    -2.312257e-02     5.927320e-02    -1.4018e-02      0.806 (TRAH MIcro)
    4     dE    -2.675264e-02     3.616849e-02    -1.5912e-02      0.825 (TRAH MIcro)
    4     dE    -2.844067e-02     6.427919e-02    -1.9283e-02      0.829 (TRAH MIcro)
    4     dE    -3.056779e-02     3.397280e-02    -2.5418e-02      0.829 (TRAH MIcro)
    4     dE    -2.846117e-02     1.594933e-02    -2.7137e-02      0.773 (TRAH MIcro)
    4     dE    -2.985168e-02     1.246832e-02    -2.7562e-02      0.795 (TRAH MIcro)
    4     dE    -3.010091e-02     6.967824e-03    -2.7626e-02      0.799 (TRAH MIcro)
    4     dE    -3.029939e-02     7.848414e-03    -2.7666e-02      0.802 (TRAH MIcro)
    4     dE    -3.052023e-02     3.559336e-03    -2.7690e-02      0.807 (TRAH MIcro)
WARNING: 1 diagonal Hessian elements are negative!
    5      -4506.817385242564     8.696089e-02                     0.829 (TRAH MAcro)   No
WARNING : negative HOMO - LUMO gap : (op = alpha) -0.001892
WARNING : small    HOMO - LUMO gap : (op =  beta) 0.013030
    5     dE    -2.116230e-03     1.366067e-01    -2.1150e-03      0.024 (TRAH MIcro)
    5     dE    -3.694502e-03     3.216219e-02    -3.6583e-03      0.099 (TRAH MIcro)
    5     dE    -4.581735e-03     7.423666e-02    -4.4628e-03      0.163 (TRAH MIcro)
    5     dE    -5.441686e-03     4.461132e-02    -5.1692e-03      0.230 (TRAH MIcro)
    5     dE    -6.000538e-03     2.060253e-02    -5.5752e-03      0.276 (TRAH MIcro)
    5     dE    -6.259139e-03     1.557862e-02    -5.7494e-03      0.298 (TRAH MIcro)
    5     dE    -6.369457e-03     1.655870e-02    -5.8270e-03      0.305 (TRAH MIcro)
    5     dE    -6.622395e-03     1.203540e-02    -6.0019e-03      0.322 (TRAH MIcro)
    5     dE    -6.763842e-03     1.007211e-02    -6.0822e-03      0.335 (TRAH MIcro)
    5     dE    -7.044137e-03     5.047973e-03    -6.2056e-03      0.368 (TRAH MIcro)
WARNING: 1 diagonal Hessian elements are negative!
    6      -4506.823298641299     1.910197e-02                     0.995 (TRAH MAcro)   No
WARNING : negative HOMO - LUMO gap : (op = alpha) -0.000702
WARNING : small    HOMO - LUMO gap : (op =  beta) 0.019964
    6     dE    -1.185264e-04     2.919741e-02    -1.1852e-04      0.006 (TRAH MIcro)
    6     dE    -4.640018e-04     2.338388e-02    -4.6245e-04      0.058 (TRAH MIcro)
    6     dE    -8.546210e-04     2.892435e-02    -8.4339e-04      0.115 (TRAH MIcro)
    6     dE    -1.011665e-03     1.217080e-02    -9.9116e-04      0.144 (TRAH MIcro)
    6     dE    -1.040724e-03     5.933368e-03    -1.0181e-03      0.149 (TRAH MIcro)
    6     dE    -1.053508e-03     5.876617e-03    -1.0301e-03      0.151 (TRAH MIcro)
    6     dE    -1.074899e-03     3.596770e-03    -1.0506e-03      0.152 (TRAH MIcro)
    6     dE    -1.082425e-03     2.435885e-03    -1.0577e-03      0.153 (TRAH MIcro)
    6     dE    -1.086393e-03     2.813051e-03    -1.0613e-03      0.154 (TRAH MIcro)
    6     dE    -1.093425e-03     2.403451e-03    -1.0674e-03      0.156 (TRAH MIcro)
    6     dE    -1.097043e-03     1.410066e-03    -1.0705e-03      0.158 (TRAH MIcro)
    7      -4506.824408863917     3.966561e-03                     1.194 (TRAH MAcro)   No
WARNING : small    HOMO - LUMO gap : (op = alpha) 0.000572
    7     dE    -1.708385e-06     1.584631e-02    -1.7084e-06      0.000 (TRAH MIcro)
    7     dE    -2.700974e-06     1.325055e-02    -2.7010e-06      0.003 (TRAH MIcro)
    7     dE    -7.341458e-06     2.698381e-03    -7.3413e-06      0.005 (TRAH MIcro)
    7     dE    -1.506188e-05     2.845118e-03    -1.5057e-05      0.017 (TRAH MIcro)
    7     dE    -2.174326e-05     2.094382e-03    -2.1724e-05      0.029 (TRAH MIcro)
    7     dE    -2.296618e-05     1.670048e-03    -2.2943e-05      0.032 (TRAH MIcro)
    7     dE    -2.410815e-05     1.354939e-03    -2.4081e-05      0.034 (TRAH MIcro)
    7     dE    -2.541591e-05     8.997313e-04    -2.5383e-05      0.036 (TRAH MIcro)
    7     dE    -2.589870e-05     1.180624e-03    -2.5862e-05      0.038 (TRAH MIcro)
    7     dE    -2.802394e-05     1.155215e-03    -2.7966e-05      0.045 (TRAH MIcro)
    7     dE    -2.837422e-05     1.164098e-03    -2.8311e-05      0.047 (TRAH MIcro)
    7     dE    -2.917188e-05     8.592804e-04    -2.9095e-05      0.051 (TRAH MIcro)
    7     dE    -2.945463e-05     3.967915e-04    -2.9372e-05      0.053 (TRAH MIcro)
    7     dE    -2.963730e-05     4.104149e-04    -2.9550e-05      0.054 (TRAH MIcro)
    8      -4506.824438892048     8.712601e-04                           (NR   MAcro)
WARNING : small    HOMO - LUMO gap : (op = alpha) 0.000951
WARNING : small    HOMO - LUMO gap : (op =  beta) 0.019445
    8     dE    -9.551332e-08     7.529172e-04                           (NR   MIcro)
    8     dE    -3.186757e-07     2.880010e-04                           (NR   MIcro)
    8     dE    -3.692759e-07     2.703362e-04                           (NR   MIcro)
    8     dE    -4.359179e-07     3.379130e-04                           (NR   MIcro)
    8     dE    -5.394366e-07     2.257614e-04                           (NR   MIcro)
    8     dE    -5.645902e-07     1.682446e-04                           (NR   MIcro)
    8     dE    -5.894951e-07     2.161040e-04                           (NR   MIcro)
    8     dE    -6.305882e-07     1.656567e-04                           (NR   MIcro)
    8     dE    -6.423337e-07     1.731507e-04                           (NR   MIcro)
    8     dE    -6.784658e-07     1.448674e-04                           (NR   MIcro)
    8     dE    -6.877626e-07     1.082272e-04                           (NR   MIcro)
    8     dE    -6.974065e-07     1.084731e-04                           (NR   MIcro)
    8     dE    -7.073067e-07     7.697506e-05                           (NR   MIcro)
    8     dE    -7.111528e-07     6.634265e-05                           (NR   MIcro)
    8     dE    -7.228955e-07     4.491103e-05                           (NR   MIcro)
    9      -4506.824439622200     4.691653e-05                           (NR   MAcro)
WARNING : small    HOMO - LUMO gap : (op = alpha) 0.000830
WARNING : small    HOMO - LUMO gap : (op =  beta) 0.019288

               *****************************************************
               *                     SUCCESS                       *
               *           SCF CONVERGED AFTER 127 CYCLES          *
               *****************************************************


----------------
TOTAL SCF ENERGY
----------------

Total Energy       :        -4506.82443962 Eh         -122636.92774 eV

Components:
Nuclear Repulsion  :         1761.15234809 Eh           47923.39177 eV
Electronic Energy  :        -6267.97678772 Eh         -170560.31951 eV
One Electron Energy:        -9754.72861164 Eh         -265439.66021 eV
Two Electron Energy:         3486.75182392 Eh           94879.34070 eV

Virial components:
Potential Energy   :        -9008.30973651 Eh         -245128.57003 eV
Kinetic Energy     :         4501.48529689 Eh          122491.64228 eV
Virial Ratio       :            2.00118608


DFT components:
N(Alpha)           :       72.999863500425 electrons
N(Beta)            :       71.999871478075 electrons
N(Total)           :      144.999734978500 electrons
E(X)               :     -215.948280769008 Eh       
E(C)               :      -11.379361716515 Eh       
E(XC)              :     -227.327642485523 Eh       
DFET-embed. en.    :        0.000000000000 Eh       

---------------
SCF CONVERGENCE
---------------

  Last Energy change         ...   -7.3015e-07  Tolerance :   1.0000e-06
  Last Orbital Gradient      ...    4.6917e-05  Tolerance :   5.0000e-05
  Last Orbital Rotation      ...    7.9105e-03

             **** THE GBW FILE WAS UPDATED (CoMn_OPT.gbw) ****
             **** DENSITY CoMn_OPT.scfp WAS UPDATED ****
             **** ENERGY FILE WAS UPDATED (CoMn_OPT.en.tmp) ****
----------------------
UHF SPIN CONTAMINATION
----------------------

Warning: in a DFT calculation there is little theoretical justification to 
         calculate <S**2> as in Hartree-Fock theory. We will do it anyways
         but you should keep in mind that the values have only limited relevance

Expectation value of <S**2>     :     1.469604
Ideal value S*(S+1) for S=0.5   :     0.750000
Deviation                       :     0.719604

             **** THE GBW FILE WAS UPDATED (CoMn_OPT.gbw) ****
             **** DENSITY CoMn_OPT.scfp WAS UPDATED ****
----------------
ORBITAL ENERGIES
----------------
                 SPIN UP ORBITALS
  NO   OCC          E(Eh)            E(eV) 
   0   1.0000    -275.643142     -7500.6312 
   1   1.0000    -275.642699     -7500.6192 
   2   1.0000    -233.753516     -6360.7565 
   3   1.0000     -32.434429      -882.5857 
   4   1.0000     -32.434235      -882.5804 
   5   1.0000     -28.231593      -768.2207 
   6   1.0000     -28.231207      -768.2102 
   7   1.0000     -28.226057      -768.0701 
   8   1.0000     -28.225999      -768.0685 
   9   1.0000     -28.212008      -767.6878 
  10   1.0000     -28.211571      -767.6759 
  11   1.0000     -26.964632      -733.7450 
  12   1.0000     -23.175611      -630.6404 
  13   1.0000     -23.174908      -630.6213 
  14   1.0000     -23.168618      -630.4501 
  15   1.0000     -18.700731      -508.8728 
  16   1.0000     -18.700360      -508.8627 
  17   1.0000     -18.695891      -508.7411 
  18   1.0000     -18.695560      -508.7321 
  19   1.0000     -18.691127      -508.6114 
  20   1.0000     -18.690678      -508.5992 
  21   1.0000     -18.682960      -508.3892 
  22   1.0000     -18.682835      -508.3858 
  23   1.0000      -3.654013       -99.4307 
  24   1.0000      -3.653949       -99.4290 
  25   1.0000      -3.143292       -85.5333 
  26   1.0000      -2.404692       -65.4350 
  27   1.0000      -2.404523       -65.4304 
  28   1.0000      -2.399168       -65.2847 
  29   1.0000      -2.398632       -65.2701 
  30   1.0000      -2.373745       -64.5929 
  31   1.0000      -2.373533       -64.5871 
  32   1.0000      -2.060250       -56.0622 
  33   1.0000      -2.057633       -55.9910 
  34   1.0000      -2.054133       -55.8958 
  35   1.0000      -0.913517       -24.8581 
  36   1.0000      -0.913332       -24.8530 
  37   1.0000      -0.869203       -23.6522 
  38   1.0000      -0.858708       -23.3666 
  39   1.0000      -0.842210       -22.9177 
  40   1.0000      -0.841624       -22.9018 
  41   1.0000      -0.837861       -22.7994 
  42   1.0000      -0.836594       -22.7649 
  43   1.0000      -0.471459       -12.8291 
  44   1.0000      -0.471239       -12.8231 
  45   1.0000      -0.436623       -11.8811 
  46   1.0000      -0.414872       -11.2892 
  47   1.0000      -0.409767       -11.1503 
  48   1.0000      -0.403552       -10.9812 
  49   1.0000      -0.401378       -10.9220 
  50   1.0000      -0.397556       -10.8180 
  51   1.0000      -0.394768       -10.7422 
  52   1.0000      -0.388679       -10.5765 
  53   1.0000      -0.384768       -10.4701 
  54   1.0000      -0.383238       -10.4284 
  55   1.0000      -0.372544       -10.1374 
  56   1.0000      -0.367739       -10.0067 
  57   1.0000      -0.362366        -9.8605 
  58   1.0000      -0.356034        -9.6882 
  59   1.0000      -0.355453        -9.6724 
  60   1.0000      -0.342185        -9.3113 
  61   1.0000      -0.333127        -9.0648 
  62   1.0000      -0.329276        -8.9601 
  63   1.0000      -0.313442        -8.5292 
  64   1.0000      -0.309106        -8.4112 
  65   1.0000      -0.308004        -8.3812 
  66   1.0000      -0.305526        -8.3138 
  67   1.0000      -0.300986        -8.1903 
  68   1.0000      -0.276743        -7.5306 
  69   1.0000      -0.272880        -7.4254 
  70   1.0000      -0.269637        -7.3372 
  71   1.0000      -0.266688        -7.2570 
  72   1.0000      -0.261619        -7.1190 
  73   0.0000      -0.260789        -7.0964 
  74   0.0000      -0.237636        -6.4664 
  75   0.0000      -0.237501        -6.4627 
  76   0.0000      -0.235217        -6.4006 
  77   0.0000      -0.231290        -6.2937 
  78   0.0000      -0.227836        -6.1997 
  79   0.0000      -0.220629        -6.0036 
  80   0.0000      -0.212579        -5.7846 
  81   0.0000      -0.197418        -5.3720 
  82   0.0000      -0.051817        -1.4100 
  83   0.0000      -0.039879        -1.0852 
  84   0.0000       0.015900         0.4327 
  85   0.0000       0.053592         1.4583 
  86   0.0000       0.080547         2.1918 
  87   0.0000       0.099061         2.6956 
  88   0.0000       0.117017         3.1842 
  89   0.0000       0.135390         3.6842 
  90   0.0000       0.152226         4.1423 
  91   0.0000       0.168946         4.5973 
  92   0.0000       0.194592         5.2951 
  93   0.0000       0.197923         5.3858 
  94   0.0000       0.202238         5.5032 
  95   0.0000       0.236482         6.4350 
  96   0.0000       0.242320         6.5939 
  97   0.0000       0.350129         9.5275 
  98   0.0000       0.468069        12.7368 
  99   0.0000       0.532385        14.4869 
 100   0.0000       0.537048        14.6138 
 101   0.0000       0.639423        17.3996 
 102   0.0000       0.677041        18.4232 
 103   0.0000       0.738315        20.0906 
 104   0.0000       0.748751        20.3745 
 105   0.0000       0.771492        20.9934 
 106   0.0000       0.797615        21.7042 
 107   0.0000       0.810601        22.0576 
 108   0.0000       0.816635        22.2218 
 109   0.0000       0.835081        22.7237 
 110   0.0000       0.836077        22.7508 
 111   0.0000       0.845293        23.0016 
 112   0.0000       0.854394        23.2492 
 113   0.0000       0.863194        23.4887 
 114   0.0000       0.867912        23.6171 
 115   0.0000       0.875516        23.8240 
 116   0.0000       0.882787        24.0218 
 117   0.0000       0.933923        25.4134 
 118   0.0000       0.939213        25.5573 
 119   0.0000       0.948126        25.7998 
 120   0.0000       0.960178        26.1278 
 121   0.0000       0.969848        26.3909 
 122   0.0000       0.989256        26.9190 
 123   0.0000       1.002126        27.2692 
 124   0.0000       1.014039        27.5934 
 125   0.0000       1.056950        28.7611 
 126   0.0000       1.060839        28.8669 
 127   0.0000       1.082795        29.4643 
 128   0.0000       1.085458        29.5368 
 129   0.0000       1.098432        29.8898 
 130   0.0000       1.103485        30.0273 
 131   0.0000       1.136561        30.9274 
 132   0.0000       1.147419        31.2229 
 133   0.0000       1.181290        32.1445 
 134   0.0000       1.192680        32.4545 
 135   0.0000       1.205681        32.8082 
 136   0.0000       1.224663        33.3248 
 137   0.0000       1.232269        33.5317 
 138   0.0000       1.255151        34.1544 
 139   0.0000       1.285426        34.9782 
 140   0.0000       1.331361        36.2282 
 141   0.0000       1.349379        36.7185 
 142   0.0000       1.353773        36.8380 
 143   0.0000       1.429698        38.9041 
 144   0.0000       1.447411        39.3860 
 145   0.0000       1.457245        39.6537 
 146   0.0000       1.495443        40.6931 
 147   0.0000       1.509055        41.0635 
 148   0.0000       1.530501        41.6471 
 149   0.0000       1.577450        42.9246 
 150   0.0000       1.655920        45.0599 
 151   0.0000       1.676666        45.6244 
 152   0.0000       2.030123        55.2425 
 153   0.0000       2.034593        55.3641 
 154   0.0000       2.459835        66.9355 
 155   0.0000       2.461462        66.9798 
 156   0.0000       2.474949        67.3468 
 157   0.0000       2.475797        67.3699 
 158   0.0000       2.476860        67.3988 
 159   0.0000       2.477636        67.4199 
 160   0.0000       2.481100        67.5142 
 161   0.0000       2.490015        67.7567 
 162   0.0000       2.494423        67.8767 
 163   0.0000       2.494841        67.8881 
 164   0.0000       2.503093        68.1126 
 165   0.0000       2.523389        68.6649 
 166   0.0000       2.526393        68.7467 
 167   0.0000       2.547838        69.3302 
 168   0.0000       2.559978        69.6606 
 169   0.0000       2.560368        69.6712 
 170   0.0000       2.573876        70.0387 
 171   0.0000       2.575454        70.0817 
 172   0.0000       2.593586        70.5751 
 173   0.0000       2.606510        70.9267 
 174   0.0000       2.617982        71.2389 
 175   0.0000       2.619872        71.2903 
 176   0.0000       2.626983        71.4838 
 177   0.0000       2.634646        71.6924 
 178   0.0000       2.658158        72.3322 
 179   0.0000       2.675419        72.8019 
 180   0.0000       2.752768        74.9066 
 181   0.0000       2.779723        75.6401 
 182   0.0000       2.791407        75.9580 
 183   0.0000       2.793797        76.0231 
 184   0.0000       2.796152        76.0872 
 185   0.0000       2.806943        76.3808 
 186   0.0000       2.830762        77.0290 
 187   0.0000       2.833376        77.1001 
 188   0.0000       2.858945        77.7958 
 189   0.0000       2.891623        78.6851 
 190   0.0000       2.916082        79.3506 
 191   0.0000       2.918959        79.4289 
 192   0.0000       3.203383        87.1685 
 193   0.0000       3.216749        87.5322 
 194   0.0000       3.233620        87.9913 
 195   0.0000       3.247974        88.3819 
 196   0.0000       3.310149        90.0737 
 197   0.0000       3.404873        92.6513 
 198   0.0000       3.425969        93.2254 
 199   0.0000       3.528977        96.0284 
 200   0.0000       3.532948        96.1364 
 201   0.0000       4.620594       125.7327 
 202   0.0000       4.620688       125.7353 
 203   0.0000       4.633429       126.0820 
 204   0.0000       4.633971       126.0968 
 205   0.0000       4.644558       126.3849 
 206   0.0000       4.656090       126.6986 
 207   0.0000       4.665762       126.9618 
 208   0.0000       4.666977       126.9949 
 209   0.0000       4.674893       127.2103 
 210   0.0000       4.677782       127.2889 
 211   0.0000       4.684008       127.4583 
 212   0.0000       4.685640       127.5027 
 213   0.0000       4.720325       128.4466 
 214   0.0000       4.724402       128.5575 

                 SPIN DOWN ORBITALS
  NO   OCC          E(Eh)            E(eV) 
   0   1.0000    -275.643299     -7500.6355 
   1   1.0000    -275.642843     -7500.6231 
   2   1.0000    -233.752787     -6360.7367 
   3   1.0000     -32.441541      -882.7792 
   4   1.0000     -32.440791      -882.7588 
   5   1.0000     -28.237420      -768.3793 
   6   1.0000     -28.236534      -768.3552 
   7   1.0000     -28.231325      -768.2134 
   8   1.0000     -28.230985      -768.2041 
   9   1.0000     -28.217232      -767.8299 
  10   1.0000     -28.216407      -767.8075 
  11   1.0000     -26.929503      -732.7890 
  12   1.0000     -23.147323      -629.8707 
  13   1.0000     -23.146087      -629.8371 
  14   1.0000     -23.144267      -629.7875 
  15   1.0000     -18.704219      -508.9677 
  16   1.0000     -18.703338      -508.9437 
  17   1.0000     -18.693830      -508.6850 
  18   1.0000     -18.693782      -508.6837 
  19   1.0000     -18.693643      -508.6799 
  20   1.0000     -18.692038      -508.6362 
  21   1.0000     -18.685047      -508.4460 
  22   1.0000     -18.684942      -508.4431 
  23   1.0000      -3.667667       -99.8023 
  24   1.0000      -3.666662       -99.7749 
  25   1.0000      -3.065029       -83.4037 
  26   1.0000      -2.418862       -65.8206 
  27   1.0000      -2.417500       -65.7835 
  28   1.0000      -2.412290       -65.6418 
  29   1.0000      -2.411832       -65.6293 
  30   1.0000      -2.385772       -64.9202 
  31   1.0000      -2.384631       -64.8891 
  32   1.0000      -1.989186       -54.1285 
  33   1.0000      -1.977490       -53.8102 
  34   1.0000      -1.977406       -53.8079 
  35   1.0000      -0.917187       -24.9579 
  36   1.0000      -0.917024       -24.9535 
  37   1.0000      -0.872705       -23.7475 
  38   1.0000      -0.862889       -23.4804 
  39   1.0000      -0.842456       -22.9244 
  40   1.0000      -0.840446       -22.8697 
  41   1.0000      -0.839634       -22.8476 
  42   1.0000      -0.839079       -22.8325 
  43   1.0000      -0.474504       -12.9119 
  44   1.0000      -0.474301       -12.9064 
  45   1.0000      -0.432787       -11.7767 
  46   1.0000      -0.413906       -11.2630 
  47   1.0000      -0.410445       -11.1688 
  48   1.0000      -0.407053       -11.0765 
  49   1.0000      -0.404149       -10.9975 
  50   1.0000      -0.398606       -10.8466 
  51   1.0000      -0.397036       -10.8039 
  52   1.0000      -0.387780       -10.5520 
  53   1.0000      -0.384681       -10.4677 
  54   1.0000      -0.383748       -10.4423 
  55   1.0000      -0.371734       -10.1154 
  56   1.0000      -0.368472       -10.0266 
  57   1.0000      -0.356882        -9.7113 
  58   1.0000      -0.350387        -9.5345 
  59   1.0000      -0.346076        -9.4172 
  60   1.0000      -0.344774        -9.3818 
  61   1.0000      -0.334916        -9.1135 
  62   1.0000      -0.330514        -8.9937 
  63   1.0000      -0.312409        -8.5011 
  64   1.0000      -0.310403        -8.4465 
  65   1.0000      -0.296638        -8.0719 
  66   1.0000      -0.289751        -7.8845 
  67   1.0000      -0.289684        -7.8827 
  68   1.0000      -0.280767        -7.6400 
  69   1.0000      -0.272876        -7.4253 
  70   1.0000      -0.267703        -7.2846 
  71   1.0000      -0.266776        -7.2593 
  72   0.0000      -0.247489        -6.7345 
  73   0.0000      -0.244225        -6.6457 
  74   0.0000      -0.240665        -6.5488 
  75   0.0000      -0.235847        -6.4177 
  76   0.0000      -0.233548        -6.3552 
  77   0.0000      -0.217579        -5.9206 
  78   0.0000      -0.216900        -5.9022 
  79   0.0000      -0.202876        -5.5205 
  80   0.0000      -0.183676        -4.9981 
  81   0.0000      -0.167406        -4.5554 
  82   0.0000      -0.051908        -1.4125 
  83   0.0000      -0.040911        -1.1132 
  84   0.0000       0.017714         0.4820 
  85   0.0000       0.053095         1.4448 
  86   0.0000       0.080165         2.1814 
  87   0.0000       0.106351         2.8940 
  88   0.0000       0.116216         3.1624 
  89   0.0000       0.135262         3.6807 
  90   0.0000       0.157580         4.2880 
  91   0.0000       0.173489         4.7209 
  92   0.0000       0.192836         5.2473 
  93   0.0000       0.198579         5.4036 
  94   0.0000       0.201847         5.4925 
  95   0.0000       0.239637         6.5209 
  96   0.0000       0.245762         6.6875 
  97   0.0000       0.355528         9.6744 
  98   0.0000       0.473433        12.8828 
  99   0.0000       0.533961        14.5298 
 100   0.0000       0.536895        14.6097 
 101   0.0000       0.650302        17.6956 
 102   0.0000       0.690323        18.7847 
 103   0.0000       0.739064        20.1110 
 104   0.0000       0.747476        20.3399 
 105   0.0000       0.775674        21.1072 
 106   0.0000       0.798728        21.7345 
 107   0.0000       0.812082        22.0979 
 108   0.0000       0.818582        22.2748 
 109   0.0000       0.835403        22.7325 
 110   0.0000       0.840740        22.8777 
 111   0.0000       0.846374        23.0310 
 112   0.0000       0.854134        23.2422 
 113   0.0000       0.861764        23.4498 
 114   0.0000       0.867698        23.6113 
 115   0.0000       0.880974        23.9725 
 116   0.0000       0.881941        23.9988 
 117   0.0000       0.931753        25.3543 
 118   0.0000       0.939698        25.5705 
 119   0.0000       0.950012        25.8511 
 120   0.0000       0.963849        26.2277 
 121   0.0000       0.970160        26.3994 
 122   0.0000       0.994731        27.0680 
 123   0.0000       1.006908        27.3994 
 124   0.0000       1.016321        27.6555 
 125   0.0000       1.053223        28.6597 
 126   0.0000       1.060390        28.8547 
 127   0.0000       1.085784        29.5457 
 128   0.0000       1.086761        29.5723 
 129   0.0000       1.095636        29.8138 
 130   0.0000       1.103489        30.0275 
 131   0.0000       1.137772        30.9604 
 132   0.0000       1.147012        31.2118 
 133   0.0000       1.182745        32.1841 
 134   0.0000       1.191420        32.4202 
 135   0.0000       1.206763        32.8377 
 136   0.0000       1.223816        33.3017 
 137   0.0000       1.232656        33.5423 
 138   0.0000       1.253655        34.1137 
 139   0.0000       1.286173        34.9985 
 140   0.0000       1.330082        36.1934 
 141   0.0000       1.348645        36.6985 
 142   0.0000       1.352994        36.8169 
 143   0.0000       1.431434        38.9513 
 144   0.0000       1.448203        39.4076 
 145   0.0000       1.460015        39.7290 
 146   0.0000       1.495035        40.6820 
 147   0.0000       1.511394        41.1271 
 148   0.0000       1.530279        41.6410 
 149   0.0000       1.586216        43.1631 
 150   0.0000       1.655208        45.0405 
 151   0.0000       1.678391        45.6713 
 152   0.0000       2.028905        55.2093 
 153   0.0000       2.033405        55.3318 
 154   0.0000       2.457068        66.8602 
 155   0.0000       2.458047        66.8868 
 156   0.0000       2.470144        67.2160 
 157   0.0000       2.472056        67.2681 
 158   0.0000       2.474056        67.3225 
 159   0.0000       2.476176        67.3802 
 160   0.0000       2.479609        67.4736 
 161   0.0000       2.487378        67.6850 
 162   0.0000       2.491608        67.8001 
 163   0.0000       2.493352        67.8475 
 164   0.0000       2.502280        68.0905 
 165   0.0000       2.520367        68.5827 
 166   0.0000       2.527609        68.7797 
 167   0.0000       2.545821        69.2753 
 168   0.0000       2.557736        69.5995 
 169   0.0000       2.558758        69.6273 
 170   0.0000       2.575781        70.0906 
 171   0.0000       2.577079        70.1259 
 172   0.0000       2.590836        70.5002 
 173   0.0000       2.603017        70.8317 
 174   0.0000       2.614760        71.1512 
 175   0.0000       2.617235        71.2186 
 176   0.0000       2.626886        71.4812 
 177   0.0000       2.634172        71.6795 
 178   0.0000       2.657202        72.3061 
 179   0.0000       2.672931        72.7342 
 180   0.0000       2.750164        74.8358 
 181   0.0000       2.777940        75.5916 
 182   0.0000       2.790765        75.9406 
 183   0.0000       2.791016        75.9474 
 184   0.0000       2.794454        76.0410 
 185   0.0000       2.805754        76.3484 
 186   0.0000       2.830427        77.0198 
 187   0.0000       2.832747        77.0830 
 188   0.0000       2.857996        77.7700 
 189   0.0000       2.891155        78.6723 
 190   0.0000       2.912499        79.2531 
 191   0.0000       2.918516        79.4169 
 192   0.0000       3.274966        89.1163 
 193   0.0000       3.277695        89.1906 
 194   0.0000       3.296697        89.7077 
 195   0.0000       3.320528        90.3562 
 196   0.0000       3.363534        91.5264 
 197   0.0000       3.447130        93.8012 
 198   0.0000       3.473951        94.5310 
 199   0.0000       3.526666        95.9655 
 200   0.0000       3.531259        96.0904 
 201   0.0000       4.608424       125.4016 
 202   0.0000       4.609318       125.4259 
 203   0.0000       4.623716       125.8177 
 204   0.0000       4.624641       125.8429 
 205   0.0000       4.632518       126.0572 
 206   0.0000       4.644053       126.3711 
 207   0.0000       4.653401       126.6255 
 208   0.0000       4.655027       126.6697 
 209   0.0000       4.664646       126.9315 
 210   0.0000       4.668022       127.0233 
 211   0.0000       4.675782       127.2345 
 212   0.0000       4.677403       127.2786 
 213   0.0000       4.709170       128.1430 
 214   0.0000       4.713245       128.2539 

                    ********************************
                    * MULLIKEN POPULATION ANALYSIS *
                    ********************************

--------------------------------------------
MULLIKEN ATOMIC CHARGES AND SPIN POPULATIONS
--------------------------------------------
   0 O :   -0.199692   -0.124402
   1 O :   -0.258148   -0.106827
   2 O :   -0.245491    0.072333
   3 O :   -0.198808   -0.143536
   4 O :   -0.245519    0.065962
   5 O :   -0.259978   -0.057520
   6 O :   -0.265045   -0.077420
   7 Co:    0.426485   -0.326261
   8 Mn:    0.622804    2.073389
[...]
      dx2y2   :     0.000007
      dxy     :     0.000003
  2 O s       :     0.000101  s :     0.000101
      pz      :    -0.001438  p :     0.062630
      px      :     0.057304
      py      :     0.006764
      dz2     :     0.000040  d :     0.000030
      dxz     :     0.000013
      dyz     :     0.000001
      dx2y2   :    -0.000014
      dxy     :    -0.000010
  3 O s       :    -0.000286  s :    -0.000286
      pz      :    -0.014110  p :    -0.001958
      px      :    -0.014948
      py      :     0.027101
      dz2     :     0.000017  d :     0.000140
      dxz     :     0.000039
      dyz     :     0.000002
      dx2y2   :     0.000066
      dxy     :     0.000015
  4 O s       :     0.000076  s :     0.000076
      pz      :     0.064261  p :     0.058418
      px      :    -0.019916
      py      :     0.014073
      dz2     :     0.000013  d :     0.000036
      dxz     :     0.000004
      dyz     :    -0.000023
      dx2y2   :     0.000022
      dxy     :     0.000020
  5 O s       :    -0.000417  s :    -0.000417
      pz      :     0.001282  p :     0.009887
      px      :     0.027023
      py      :    -0.018417
      dz2     :    -0.000004  d :     0.000015
      dxz     :    -0.000021
      dyz     :     0.000020
      dx2y2   :     0.000001
      dxy     :     0.000018
  6 O s       :    -0.000528  s :    -0.000528
      pz      :     0.045503  p :     0.033606
      px      :    -0.001448
      py      :    -0.010448
      dz2     :    -0.000049  d :    -0.000047
      dxz     :     0.000049
      dyz     :    -0.000001
      dx2y2   :    -0.000036
      dxy     :    -0.000010
  7 Cos       :    -0.000647  s :    -0.000647
      pz      :     0.011162  p :     0.007119
      px      :    -0.004613
      py      :     0.000571
      dz2     :    -0.019403  d :     0.012072
      dxz     :     0.021714
      dyz     :    -0.001317
      dx2y2   :     0.034005
      dxy     :    -0.022927
      f0      :     0.000002  f :     0.000004
      f+1     :    -0.000002
      f-1     :     0.000000
      f+2     :     0.000004
      f-2     :    -0.000002
      f+3     :     0.000003
      f-3     :    -0.000001
  8 Mns       :     0.001687  s :     0.001687
      pz      :     0.001976  p :     0.007465
      px      :     0.002934
      py      :     0.002555
      dz2     :     0.036893  d :     0.747213
      dxz     :     0.177190
      dyz     :     0.223777
      dx2y2   :     0.274803
      dxy     :     0.034550
      f0      :     0.000071  f :     0.000234
      f+1     :     0.000044
      f-1     :     0.000011
      f+2     :     0.000009
      f-2     :     0.000005
      f+3     :     0.000076
      f-3     :     0.000019
  9 O s       :    -0.000487  s :    -0.000487
      pz      :    -0.006885  p :     0.036586
      px      :     0.034813
      py      :     0.008658
      dz2     :    -0.000012  d :    -0.000045
      dxz     :    -0.000038
      dyz     :     0.000021
      dx2y2   :     0.000028
      dxy     :    -0.000045
 10 Cos       :    -0.000650  s :    -0.000650
      pz      :    -0.001303  p :     0.007364
      px      :     0.005911
      py      :     0.002756
      dz2     :    -0.009802  d :     0.018970
      dxz     :     0.043943
      dyz     :     0.000409
      dx2y2   :     0.015782
      dxy     :    -0.031361
      f0      :     0.000002  f :     0.000004
      f+1     :     0.000002
      f-1     :     0.000000
      f+2     :     0.000004
      f-2     :    -0.000002
      f+3     :    -0.000002
      f-3     :    -0.000001
 11 H s       :    -0.002050  s :    -0.002050
      pz      :    -0.000058  p :     0.000182
      px      :     0.000284
      py      :    -0.000044
 12 H s       :    -0.001984  s :    -0.001984
      pz      :     0.000195  p :     0.000158
      px      :     0.000090
      py      :    -0.000126


                     *******************************
                     * LOEWDIN POPULATION ANALYSIS *
                     *******************************

-------------------------------------------
LOEWDIN ATOMIC CHARGES AND SPIN POPULATIONS
-------------------------------------------
   0 O :   -0.055229   -0.000869
   1 O :   -0.107663    0.011359
   2 O :   -0.102809    0.064336
   3 O :   -0.055363    0.001173
   4 O :   -0.102886    0.060222
   5 O :   -0.109151    0.011540
   6 O :   -0.126546    0.031835
   7 Co:    0.226969    0.018979
   8 Mn:    0.102630    0.741971
   9 O :   -0.126158    0.034782
  10 Co:    0.226715    0.026007
  11 H :    0.114594   -0.000648
  12 H :    0.114895   -0.000687

----------------------------------------------------
LOEWDIN REDUCED ORBITAL CHARGES AND SPIN POPULATIONS
----------------------------------------------------
CHARGE
  0 O s       :     3.641785  s :     3.641785
      pz      :     1.496898  p :     4.397651
      px      :     1.272177
      py      :     1.628576
      dz2     :     0.004908  d :     0.015793
      dxz     :     0.004535
      dyz     :     0.001861
      dx2y2   :     0.002468
      dxy     :     0.002022
  1 O s       :     3.659377  s :     3.659377
      pz      :     1.432550  p :     4.434091
      px      :     1.534523
      py      :     1.467018
      dz2     :     0.002799  d :     0.014195
      dxz     :     0.001919
      dyz     :     0.004001
      dx2y2   :     0.002475
      dxy     :     0.003001
  2 O s       :     3.651361  s :     3.651361
      pz      :     1.477241  p :     4.436886
      px      :     1.517314
      py      :     1.442332
      dz2     :     0.002425  d :     0.014562
      dxz     :     0.001731
      dyz     :     0.003755
      dx2y2   :     0.003002
      dxy     :     0.003649
  3 O s       :     3.642075  s :     3.642075
      pz      :     1.446572  p :     4.397543
      px      :     1.481275
      py      :     1.469696
      dz2     :     0.002697  d :     0.015745
      dxz     :     0.001823
      dyz     :     0.003629
      dx2y2   :     0.003379
      dxy     :     0.004216
  4 O s       :     3.651388  s :     3.651388
      pz      :     1.506052  p :     4.436940
      px      :     1.483516
      py      :     1.447372
      dz2     :     0.002658  d :     0.014558
      dxz     :     0.001743
      dyz     :     0.003855
      dx2y2   :     0.002920
      dxy     :     0.003382
  5 O s       :     3.660286  s :     3.660286
      pz      :     1.464887  p :     4.434750
      px      :     1.324907
      py      :     1.644956
      dz2     :     0.003449  d :     0.014115
      dxz     :     0.004173
      dyz     :     0.001198
      dx2y2   :     0.002978
      dxy     :     0.002318
  6 O s       :     3.515824  s :     3.515824
      pz      :     1.588719  p :     4.594987
      px      :     1.349745
      py      :     1.656523
      dz2     :     0.003233  d :     0.015735
      dxz     :     0.005359
      dyz     :     0.001348
      dx2y2   :     0.005362
      dxy     :     0.000433
  7 Cos       :     6.350199  s :     6.350199
      pz      :     4.300524  p :    12.869125
      px      :     4.279109
      py      :     4.289493
      dz2     :     1.879044  d :     7.549986
      dxz     :     1.314196
      dyz     :     1.234440
      dx2y2   :     1.255147
      dxy     :     1.867160
      f0      :     0.000313  f :     0.003721
      f+1     :     0.000585
      f-1     :     0.000655
      f+2     :     0.000842
      f-2     :     0.000607
      f+3     :     0.000429
      f-3     :     0.000289
  8 Mns       :     6.295192  s :     6.295192
      pz      :     4.292805  p :    12.881858
      px      :     4.285218
      py      :     4.303835
      dz2     :     1.049192  d :     5.705059
      dxz     :     1.245895
      dyz     :     1.138935
      dx2y2   :     1.238051
      dxy     :     1.032988
      f0      :     0.004103  f :     0.015260
      f+1     :     0.001930
      f-1     :     0.002311
      f+2     :     0.000240
      f-2     :     0.001093
      f+3     :     0.002186
      f-3     :     0.003398
  9 O s       :     3.516053  s :     3.516053
      pz      :     1.509698  p :     4.594329
      px      :     1.532946
      py      :     1.551684
      dz2     :     0.001030  d :     0.015776
      dxz     :     0.002613
      dyz     :     0.006097
      dx2y2   :     0.003460
      dxy     :     0.002576
 10 Cos       :     6.350324  s :     6.350324
      pz      :     4.283726  p :    12.869691
      px      :     4.310233
      py      :     4.275732
      dz2     :     1.889325  d :     7.549547
      dxz     :     1.325842
      dyz     :     1.187535
      dx2y2   :     1.273566
      dxy     :     1.873279
      f0      :     0.000392  f :     0.003723
      f+1     :     0.000422
      f-1     :     0.000483
      f+2     :     0.000848
      f-2     :     0.000555
      f+3     :     0.000668
      f-3     :     0.000355
 11 H s       :     0.711732  s :     0.711732
      pz      :     0.063210  p :     0.173674
      px      :     0.042747
      py      :     0.067717
 12 H s       :     0.711488  s :     0.711488
      pz      :     0.045879  p :     0.173618
      px      :     0.086877
      py      :     0.040861

SPIN
  0 O s       :     0.000436  s :     0.000436
      pz      :    -0.003586  p :    -0.001785
      px      :     0.003781
      py      :    -0.001980
      dz2     :     0.000061  d :     0.000480
      dxz     :     0.000307
      dyz     :     0.000086
      dx2y2   :     0.000011
      dxy     :     0.000015
  1 O s       :     0.000327  s :     0.000327
      pz      :    -0.017484  p :     0.010963
      px      :     0.037279
      py      :    -0.008832
      dz2     :     0.000015  d :     0.000069
      dxz     :     0.000002
      dyz     :    -0.000013
      dx2y2   :     0.000034
      dxy     :     0.000032
  2 O s       :     0.000602  s :     0.000602
      pz      :    -0.000996  p :     0.063525
      px      :     0.057017
      py      :     0.007504
      dz2     :     0.000047  d :     0.000209
      dxz     :     0.000106
      dyz     :     0.000021
      dx2y2   :     0.000007
      dxy     :     0.000028
  3 O s       :     0.000410  s :     0.000410
      pz      :    -0.013427  p :     0.000289
      px      :    -0.013068
      py      :     0.026783
      dz2     :     0.000032  d :     0.000474
      dxz     :     0.000092
      dyz     :     0.000024
      dx2y2   :     0.000285
      dxy     :     0.000040
  4 O s       :     0.000584  s :     0.000584
      pz      :     0.063769  p :     0.059419
      px      :    -0.018477
      py      :     0.014127
      dz2     :     0.000017  d :     0.000219
      dxz     :     0.000006
      dyz     :     0.000018
      dx2y2   :     0.000126
      dxy     :     0.000052
  5 O s       :     0.000319  s :     0.000319
      pz      :     0.002100  p :     0.011154
      px      :     0.026942
      py      :    -0.017888
      dz2     :     0.000038  d :     0.000068
      dxz     :    -0.000041
      dyz     :     0.000063
      dx2y2   :    -0.000001
      dxy     :     0.000008
  6 O s       :    -0.000472  s :    -0.000472
      pz      :     0.044512  p :     0.032288
      px      :    -0.002015
      py      :    -0.010209
      dz2     :     0.000082  d :     0.000020
      dxz     :     0.000072
      dyz     :    -0.000009
      dx2y2   :    -0.000115
      dxy     :    -0.000010
  7 Cos       :    -0.000869  s :    -0.000869
      pz      :     0.008879  p :     0.006703
      px      :    -0.002621
      py      :     0.000446
      dz2     :    -0.019620  d :     0.013139
      dxz     :     0.022440
      dyz     :    -0.001148
      dx2y2   :     0.034588
      dxy     :    -0.023120
      f0      :     0.000002  f :     0.000006
      f+1     :    -0.000002
      f-1     :     0.000001
      f+2     :     0.000007
      f-2     :    -0.000003
      f+3     :     0.000003
      f-3     :    -0.000001
  8 Mns       :    -0.000014  s :    -0.000014
      pz      :     0.000766  p :     0.003016
      px      :     0.000961
      py      :     0.001289
      dz2     :     0.034572  d :     0.738579
      dxz     :     0.175523
      dyz     :     0.222408
      dx2y2   :     0.273723
      dxy     :     0.032353
      f0      :     0.000121  f :     0.000390
      f+1     :     0.000075
      f-1     :     0.000009
      f+2     :     0.000028
      f-2     :     0.000003
      f+3     :     0.000131
      f-3     :     0.000023
  9 O s       :    -0.000434  s :    -0.000434
      pz      :    -0.006891  p :     0.035188
      px      :     0.033671
      py      :     0.008409
      dz2     :     0.000030  d :     0.000028
      dxz     :    -0.000103
      dyz     :     0.000006
      dx2y2   :     0.000051
      dxy     :     0.000044
 10 Cos       :    -0.000878  s :    -0.000878
      pz      :    -0.000221  p :     0.006887
      px      :     0.004540
      py      :     0.002568
      dz2     :    -0.009920  d :     0.019992
      dxz     :     0.044980
      dyz     :     0.000475
      dx2y2   :     0.016138
      dxy     :    -0.031680
      f0      :     0.000003  f :     0.000006
      f+1     :     0.000003
      f-1     :     0.000000
      f+2     :     0.000007
      f-2     :    -0.000002
      f+3     :    -0.000003
      f-3     :    -0.000002
 11 H s       :    -0.001447  s :    -0.001447
      pz      :    -0.000151  p :     0.000799
      px      :     0.000863
      py      :     0.000087
 12 H s       :    -0.001402  s :    -0.001402
      pz      :     0.000878  p :     0.000715
      px      :     0.000159
      py      :    -0.000323


                      *****************************
                      * MAYER POPULATION ANALYSIS *
                      *****************************

  NA   - Mulliken gross atomic population
  ZA   - Total nuclear charge
  QA   - Mulliken gross atomic charge
  VA   - Mayer's total valence
  BVA  - Mayer's bonded valence
  FA   - Mayer's free valence

  ATOM       NA         ZA         QA         VA         BVA        FA
  0 O      8.2289     8.0000    -0.2289     2.4604     2.4591     0.0013
  1 O      8.2529     8.0000    -0.2529     2.4283     2.4251     0.0033
  2 O      8.2562     8.0000    -0.2562     2.4213     2.4143     0.0070
  3 O      8.2285     8.0000    -0.2285     2.4602     2.4588     0.0014
  4 O      8.2564     8.0000    -0.2564     2.4214     2.4149     0.0065
  5 O      8.2531     8.0000    -0.2531     2.4289     2.4255     0.0034
  6 O      8.3385     8.0000    -0.3385     2.3858     2.3833     0.0025
  7 Co    26.4742    27.0000     0.5258     5.3075     5.2894     0.0181
  8 Mn    24.3770    25.0000     0.6230     6.6129     6.3501     0.2628
  9 O      8.3378     8.0000    -0.3378     2.3857     2.3830     0.0027
 10 Co    26.4739    27.0000     0.5261     5.3111     5.2919     0.0192
 11 H      0.7615     1.0000     0.2385     0.9592     0.9591     0.0000
 12 H      0.7612     1.0000     0.2388     0.9590     0.9590     0.0000

  Mayer bond orders larger than 0.100000
B(  0-O ,  7-Co) :   1.0340 B(  0-O ,  8-Mn) :   0.9509 B(  1-O ,  7-Co) :   1.1659 
B(  1-O ,  8-Mn) :   0.7416 B(  2-O ,  6-O ) :   0.1055 B(  2-O ,  7-Co) :   1.1338 
B(  2-O ,  8-Mn) :   0.7860 B(  3-O ,  8-Mn) :   0.9492 B(  3-O , 10-Co) :   1.0355 
B(  4-O ,  8-Mn) :   0.7822 B(  4-O ,  9-O ) :   0.1061 B(  4-O , 10-Co) :   1.1372 
B(  5-O ,  8-Mn) :   0.7385 B(  5-O , 10-Co) :   1.1658 B(  6-O ,  7-Co) :   1.0347 
B(  6-O ,  8-Mn) :   0.1237 B(  6-O , 12-H ) :   0.9171 B(  7-Co,  8-Mn) :   0.5757 
B(  8-Mn,  9-O ) :   0.1222 B(  8-Mn, 10-Co) :   0.5733 B(  9-O , 10-Co) :   1.0340 
B(  9-O , 11-H ) :   0.9173 

-------
TIMINGS
-------

Total SCF time: 0 days 0 hours 0 min 13 sec 

Total time                  ....      13.590 sec
Sum of individual times     ....      12.101 sec  ( 89.0%)

Fock matrix formation       ....      10.844 sec  ( 79.8%)
  Split-RI-J                ....       5.446 sec  ( 50.2% of F)
  XC integration            ....       4.532 sec  ( 41.8% of F)
    Basis function eval.    ....       0.524 sec  ( 11.6% of XC)
    Density eval.           ....       1.815 sec  ( 40.0% of XC)
    XC-Functional eval.     ....       0.116 sec  (  2.6% of XC)
    XC-Potential eval.      ....       0.983 sec  ( 21.7% of XC)
Diagonalization             ....       0.305 sec  (  2.2%)
Density matrix formation    ....       0.045 sec  (  0.3%)
Population analysis         ....       0.054 sec  (  0.4%)
Initial guess               ....       0.012 sec  (  0.1%)
Orbital Transformation      ....       0.206 sec  (  1.5%)
Orbital Orthonormalization  ....       0.007 sec  (  0.1%)
DIIS solution               ....       0.212 sec  (  1.6%)
Grid generation             ....       0.420 sec  (  3.1%)

Maximum memory used throughout the entire SCF-calculation: 28.2 MB

-------------------------   --------------------
FINAL SINGLE POINT ENERGY     -4507.018308541245
-------------------------   --------------------

                                *** OPTIMIZATION RUN DONE ***

                            ***************************************
                            *     ORCA property calculations      *
                            ***************************************

                                    ---------------------
                                    Active property flags
                                    ---------------------
   (+) Dipole Moment


------------------------------------------------------------------------------
                       ORCA ELECTRIC PROPERTIES CALCULATION
------------------------------------------------------------------------------

Dipole Moment Calculation                       ... on
Quadrupole Moment Calculation                   ... off
Polarizability Calculation                      ... off
GBWName                                         ... CoMn_OPT.gbw
Electron density                                ... CoMn_OPT.scfp
The origin for moment calculation is the CENTER OF MASS  = (-0.146893, -0.126104  0.039793)

-------------
DIPOLE MOMENT
-------------
                                X             Y             Z
Electronic contribution:      0.21641       0.18125      -0.30044
Nuclear contribution   :      0.20147       0.21651      -0.28723
                        -----------------------------------------
Total Dipole Moment    :      0.41789       0.39776      -0.58767
                        -----------------------------------------
Magnitude (a.u.)       :      0.82353
Magnitude (Debye)      :      2.09324



--------------------
Rotational spectrum 
--------------------
 
Rotational constants in cm-1:     0.088988     0.012806     0.012803 
Rotational constants in MHz :  2667.783146   383.915480   383.819993 

 Dipole components along the rotational axes: 
x,y,z [a.u.] :    -0.001678    -0.823370    -0.015929 
x,y,z [Debye]:    -0.004264    -2.092839    -0.040489 

 

Timings for individual modules:

Sum of individual times         ...      599.265 sec (=   9.988 min)
GTO integral calculation        ...       48.578 sec (=   0.810 min)   8.1 %
SCF iterations                  ...      464.194 sec (=   7.737 min)  77.5 %
SCF Gradient evaluation         ...       83.253 sec (=   1.388 min)  13.9 %
Geometry relaxation             ...        3.240 sec (=   0.054 min)   0.5 %
                             ****ORCA TERMINATED NORMALLY****
TOTAL RUN TIME: 0 days 0 hours 10 minutes 4 seconds 904 msec
