
                                 *****************
                                 * O   R   C   A *
                                 *****************

                                            #,                                       
                                            ###                                      
                                            ####                                     
                                            #####                                    
                                            ######                                   
                                           ########,                                 
                                     ,,################,,,,,                         
                               ,,#################################,,                 
                          ,,##########################################,,             
                       ,#########################################, ''#####,          
                    ,#############################################,,   '####,        
                  ,##################################################,,,,####,       
                ,###########''''           ''''###############################       
              ,#####''   ,,,,##########,,,,          '''####'''          '####       
            ,##' ,,,,###########################,,,                        '##       
           ' ,,###''''                  '''############,,,                           
         ,,##''                                '''############,,,,        ,,,,,,###''
      ,#''                                            '''#######################'''  
     '                                                          ''''####''''         
             ,#######,   #######,   ,#######,      ##                                
            ,#'     '#,  ##    ##  ,#'     '#,    #''#        ######   ,####,        
            ##       ##  ##   ,#'  ##            #'  '#       #        #'  '#        
            ##       ##  #######   ##           ,######,      #####,   #    #        
            '#,     ,#'  ##    ##  '#,     ,#' ,#      #,         ##   #,  ,#        
             '#######'   ##     ##  '#######'  #'      '#     #####' # '####'        



                  #######################################################
                  #                        -***-                        #
                  #          Department of theory and spectroscopy      #
                  #    Directorship and core code : Frank Neese         #
                  #        Max Planck Institute fuer Kohlenforschung    #
                  #                Kaiser Wilhelm Platz 1               #
                  #                 D-45470 Muelheim/Ruhr               #
                  #                      Germany                        #
                  #                                                     #
                  #                  All rights reserved                #
                  #                        -***-                        #
                  #######################################################


                         Program Version 5.0.3 -  RELEASE  -


 With contributions from (in alphabetic order):
   Daniel Aravena         : Magnetic Suceptibility
   Michael Atanasov       : Ab Initio Ligand Field Theory (pilot matlab implementation)
   Alexander A. Auer      : GIAO ZORA, VPT2 properties, NMR spectrum
   Ute Becker             : Parallelization
   Giovanni Bistoni       : ED, misc. LED, open-shell LED, HFLD
   Martin Brehm           : Molecular dynamics
   Dmytro Bykov           : SCF Hessian
   Vijay G. Chilkuri      : MRCI spin determinant printing, contributions to CSF-ICE
   Dipayan Datta          : RHF DLPNO-CCSD density
   Achintya Kumar Dutta   : EOM-CC, STEOM-CC
   Dmitry Ganyushin       : Spin-Orbit,Spin-Spin,Magnetic field MRCI
   Miquel Garcia          : C-PCM and meta-GGA Hessian, CC/C-PCM, Gaussian charge scheme
   Yang Guo               : DLPNO-NEVPT2, F12-NEVPT2, CIM, IAO-localization
   Andreas Hansen         : Spin unrestricted coupled pair/coupled cluster methods
   Benjamin Helmich-Paris : MC-RPA, TRAH-SCF, COSX integrals
   Lee Huntington         : MR-EOM, pCC
   Robert Izsak           : Overlap fitted RIJCOSX, COSX-SCS-MP3, EOM
   Marcus Kettner         : VPT2
   Christian Kollmar      : KDIIS, OOCD, Brueckner-CCSD(T), CCSD density, CASPT2, CASPT2-K
   Simone Kossmann        : Meta GGA functionals, TD-DFT gradient, OOMP2, MP2 Hessian
   Martin Krupicka        : Initial AUTO-CI
   Lucas Lang             : DCDCAS
   Marvin Lechner         : AUTO-CI (C++ implementation), FIC-MRCC
   Dagmar Lenk            : GEPOL surface, SMD
   Dimitrios Liakos       : Extrapolation schemes; Compound Job, initial MDCI parallelization
   Dimitrios Manganas     : Further ROCIS development; embedding schemes
   Dimitrios Pantazis     : SARC Basis sets
   Anastasios Papadopoulos: AUTO-CI, single reference methods and gradients
   Taras Petrenko         : DFT Hessian,TD-DFT gradient, ASA, ECA, R-Raman, ABS, FL, XAS/XES, NRVS
   Peter Pinski           : DLPNO-MP2, DLPNO-MP2 Gradient
   Christoph Reimann      : Effective Core Potentials
   Marius Retegan         : Local ZFS, SOC
   Christoph Riplinger    : Optimizer, TS searches, QM/MM, DLPNO-CCSD(T), (RO)-DLPNO pert. Triples
   Tobias Risthaus        : Range-separated hybrids, TD-DFT gradient, RPA, STAB
   Michael Roemelt        : Original ROCIS implementation
   Masaaki Saitow         : Open-shell DLPNO-CCSD energy and density
   Barbara Sandhoefer     : DKH picture change effects
   Avijit Sen             : IP-ROCIS
   Kantharuban Sivalingam : CASSCF convergence, NEVPT2, FIC-MRCI
   Bernardo de Souza      : ESD, SOC TD-DFT
   Georgi Stoychev        : AutoAux, RI-MP2 NMR, DLPNO-MP2 response
   Willem Van den Heuvel  : Paramagnetic NMR
   Boris Wezisla          : Elementary symmetry handling
   Frank Wennmohs         : Technical directorship


 We gratefully acknowledge several colleagues who have allowed us to
 interface, adapt or use parts of their codes:
   Stefan Grimme, W. Hujo, H. Kruse, P. Pracht,  : VdW corrections, initial TS optimization,
                  C. Bannwarth, S. Ehlert          DFT functionals, gCP, sTDA/sTD-DF
   Ed Valeev, F. Pavosevic, A. Kumar             : LibInt (2-el integral package), F12 methods
   Garnet Chan, S. Sharma, J. Yang, R. Olivares  : DMRG
   Ulf Ekstrom                                   : XCFun DFT Library
   Mihaly Kallay                                 : mrcc  (arbitrary order and MRCC methods)
   Jiri Pittner, Ondrej Demel                    : Mk-CCSD
   Frank Weinhold                                : gennbo (NPA and NBO analysis)
   Christopher J. Cramer and Donald G. Truhlar   : smd solvation model
   Lars Goerigk                                  : TD-DFT with DH, B97 family of functionals
   V. Asgeirsson, H. Jonsson                     : NEB implementation
   FAccTs GmbH                                   : IRC, NEB, NEB-TS, DLPNO-Multilevel, CI-OPT
                                                   MM, QMMM, 2- and 3-layer-ONIOM, Crystal-QMMM,
                                                   LR-CPCM, SF, NACMEs, symmetry and pop. for TD-DFT,
                                                   nearIR, NL-DFT gradient (VV10), updates on ESD,
                                                   ML-optimized integration grids
   S Lehtola, MJT Oliveira, MAL Marques          : LibXC Library
   Liviu Ungur et al                             : ANISO software


 Your calculation uses the libint2 library for the computation of 2-el integrals
 For citations please refer to: http://libint.valeyev.net

 Your ORCA version has been built with support for libXC version: 5.1.0
 For citations please refer to: https://tddft.org/programs/libxc/

 This ORCA versions uses:
   CBLAS   interface :  Fast vector & matrix operations
   LAPACKE interface :  Fast linear algebra routines
   Shared memory     :  Shared parallel matrices


SCAN-COORDS
================================================================================

----- Orbital basis set information -----
Your calculation utilizes the basis: def2-SVP
   F. Weigend and R. Ahlrichs, Phys. Chem. Chem. Phys. 7, 3297 (2005).

----- AuxJ basis set information -----
Your calculation utilizes the auxiliary basis: def2/J
   F. Weigend, Phys. Chem. Chem. Phys. 8, 1057 (2006).

================================================================================
                                        WARNINGS
                       Please study these warnings very carefully!
================================================================================


WARNING: your system is open-shell and RHF/RKS was chosen
  ===> : WILL SWITCH to UHF/UKS


WARNING: The environment variable RSH_COMMAND is not set!
  ===> : All Displacements for the Numerical Hessian or Gradient calculation
         will be started on localhost

WARNING: Geometry Optimization
  ===> : Switching off AutoStart
         For restart on a previous wavefunction, please use MOREAD

INFO   : the flag for use of the SHARK integral package has been found!

================================================================================
                                       INPUT FILE
================================================================================
NAME = CoMn_COMPLETE.inp
|  1> ! PAL5 VWN
|  2> %method
|  3>         method DFT
|  4>         runtyp OPT
|  5> end
|  6> 
|  7> %scf                  
|  8>        MaxIter 500
|  9> end
| 10> %geom                  
| 11>        MaxIter 500
| 12>        Convergence loose                                                  
| 13> end
| 14> 
| 15> %basis
| 16>         basis "def2-SVP"
| 17> end
| 18> ! NumFreq
| 19> %elprop
| 20>         Polar 1
| 21> end
| 22> %output
| 23>         XYZFile true
| 24> end
| 25> %coords
| 26>         CTyp xyz
| 27>         Charge 0
| 28>         Mult 2
| 29>         Units Angs
| 30>         coords
| 31>         O      0.216214   -0.006219    1.965016
| 32> 	O      1.457860    1.465908    0.170578
| 33> 	O      1.461175   -1.657734    0.336658
| 34> 	O     -1.619033   -1.285334   -0.190267
| 35> 	O     -1.795432    1.335463   -0.018287
| 36> 	O     -0.178454   -0.282819   -2.151821
| 37> 	O      2.928865    0.033011    2.655076
| 38> 	Co     1.916410   -0.048912    1.128433
| 39> 	Mn    -0.107478   -0.107705    0.062356
| 40> 	O     -3.398012   -0.438743   -2.179417
| 41> 	Co    -1.827952    0.136125   -1.426456
| 42> 	H     -3.665118    0.296023   -2.786998
| 43> 	H      3.863775   -0.035801    2.336404
| 44>         end
| 45> endd                         ****END OF INPUT****
================================================================================

                       *****************************
                       * Geometry Optimization Run *
                       *****************************

Geometry optimization settings:
Update method            Update   .... BFGS
Choice of coordinates    CoordSys .... Z-matrix Internals
Initial Hessian          InHess   .... Almoef's Model

Convergence Tolerances:
Energy Change            TolE     ....  3.0000e-05 Eh
Max. Gradient            TolMAXG  ....  2.0000e-03 Eh/bohr
RMS Gradient             TolRMSG  ....  5.0000e-04 Eh/bohr
Max. Displacement        TolMAXD  ....  1.0000e-02 bohr
RMS Displacement         TolRMSD  ....  7.0000e-03 bohr
Strict Convergence                ....  False
------------------------------------------------------------------------------
                        ORCA OPTIMIZATION COORDINATE SETUP
------------------------------------------------------------------------------

The optimization will be done in new redundant internal coordinates
Making redundant internal coordinates   ...  (new redundants) done
Evaluating the initial hessian          ...  (Almloef) done
Evaluating the coordinates              ...  done
Calculating the B-matrix                .... done
Calculating the G-matrix                .... done
Diagonalizing the G-matrix              .... done
The first mode is                       ....  153
The number of degrees of freedom        ....   33

    -----------------------------------------------------------------
                    Redundant Internal Coordinates


    -----------------------------------------------------------------
         Definition                    Initial Value    Approx d2E/dq
    -----------------------------------------------------------------
      1. B(Co  7,O   6)                  1.8337         1.109488   
      2. B(Co  7,O   2)                  1.8500         1.045007   
      3. B(Co  7,O   1)                  1.8500         1.045028   
      4. B(Co  7,O   0)                  1.8954         0.884592   
      5. B(Mn  8,O   1)                  2.2222         0.266225   
      6. B(Mn  8,O   2)                  2.2223         0.266170   
      7. B(Mn  8,O   0)                  1.9327         0.771284   
      8. B(Mn  8,O   4)                  2.2223         0.266187   
      9. B(Mn  8,O   5)                  2.2222         0.266219   
     10. B(Mn  8,Co  7)                  2.2883         2.359846   
     11. B(Mn  8,O   3)                  1.9327         0.771111   
     12. B(Co 10,O   5)                  1.8500         1.044947   
     13. B(Co 10,O   4)                  1.8500         1.045054   
     14. B(Co 10,Mn  8)                  2.2882         2.359949   
     15. B(Co 10,O   3)                  1.8954         0.884595   
     16. B(Co 10,O   9)                  1.8337         1.109381   
     17. B(H  11,O   9)                  0.9901         0.465454   
     18. B(H  12,O   6)                  0.9901         0.465487   
     19. A(Co  7,O   0,Mn  8)           73.4126         0.607000   
     20. A(Co  7,O   1,Mn  8)           67.6650         0.511818   
     21. A(Co  7,O   2,Mn  8)           67.6636         0.511796   
     22. A(Mn  8,O   3,Co 10)           73.4108         0.606974   
     23. A(Mn  8,O   4,Co 10)           67.6638         0.511806   
     24. A(Mn  8,O   5,Co 10)           67.6641         0.511808   
     25. A(Co  7,O   6,H  12)          104.4946         0.451088   
     26. A(O   2,Co  7,O   6)          122.0760         0.673052   
     27. A(O   6,Co  7,Mn  8)          151.3277         0.875239   
     28. A(O   1,Co  7,O   2)          115.4355         0.665193   
     29. A(O   1,Co  7,O   6)          122.0961         0.673055   
     30. A(O   0,Co  7,Mn  8)           54.0427         0.835943   
     31. A(O   1,Co  7,Mn  8)           63.9335         0.864659   
     32. A(O   0,Co  7,O   2)           89.2987         0.643862   
     33. A(O   0,Co  7,O   6)           97.2850         0.651432   
     34. A(O   0,Co  7,O   1)           89.2978         0.643864   
     35. A(O   2,Co  7,Mn  8)           63.9353         0.864656   
     36. A(O   2,Mn  8,O   3)           98.2329         0.483688   
     37. A(O   0,Mn  8,Co  7)           52.5447         0.813126   
     38. A(O   1,Mn  8,O   3)          171.3929         0.483706   
     39. A(O   4,Mn  8,O   5)           89.4704         0.399256   
     40. A(O   0,Mn  8,O   3)          106.9575         0.591151   
     41. A(O   1,Mn  8,O   2)           89.4662         0.399253   
     42. A(O   3,Mn  8,O   5)           78.2742         0.483704   
     43. A(O   2,Mn  8,O   5)           95.1963         0.399251   
     44. A(O   0,Mn  8,O   2)           78.2809         0.483708   
     45. A(O   1,Mn  8,O   5)           97.2860         0.399266   
     46. A(O   0,Mn  8,Co 10)          139.5407         0.813133   
     47. A(O   1,Mn  8,Co  7)           48.4015         0.658186   
     48. A(O   2,Mn  8,Co  7)           48.4011         0.658159   
     49. A(O   0,Mn  8,O   5)          172.0534         0.483724   
     50. A(O   3,Mn  8,O   4)           78.2821         0.483694   
     51. A(O   2,Mn  8,O   4)          173.5172         0.399243   
     52. A(O   0,Mn  8,O   1)           78.2814         0.483726   
     53. A(O   5,Mn  8,Co  7)          119.6353         0.658183   
     54. A(O   1,Mn  8,O   4)           94.4127         0.399257   
     55. A(O   4,Mn  8,Co  7)          132.2243         0.658167   
     56. A(O   3,Mn  8,Co  7)          140.1997         0.813089   
     57. A(O   0,Mn  8,O   4)           97.4026         0.483714   
     58. A(Co  7,Mn  8,Co 10)          164.8838         1.133181   
     59. A(O   1,Mn  8,Co 10)          119.0684         0.658191   
     60. A(O   2,Mn  8,Co 10)          133.2644         0.658165   
     61. A(O   3,Mn  8,Co 10)           52.5443         0.813096   
     62. A(O   4,Mn  8,Co 10)           48.4011         0.658173   
     63. A(O   5,Mn  8,Co 10)           48.4022         0.658188   
     64. A(Co 10,O   9,H  11)          104.4956         0.451074   
     65. A(Mn  8,Co 10,O   9)          151.3457         0.875229   
     66. A(O   5,Co 10,O   9)          122.1019         0.673032   
     67. A(O   4,Co 10,O   9)          122.0629         0.673046   
     68. A(O   3,Co 10,O   9)           97.3008         0.651421   
     69. A(O   5,Co 10,Mn  8)           63.9337         0.864653   
     70. A(O   4,Co 10,Mn  8)           63.9351         0.864671   
     71. A(O   3,Co 10,Mn  8)           54.0449         0.835951   
     72. A(O   4,Co 10,O   5)          115.4415         0.665189   
     73. A(O   3,Co 10,O   5)           89.2902         0.643855   
     74. A(O   3,Co 10,O   4)           89.3015         0.643868   
     75. D(O   6,Co  7,O   0,Mn  8)   -179.9907         0.005101   
     76. D(O   0,Co  7,O   6,H  12)    176.8452         0.007230   
     77. D(Mn  8,Co  7,O   6,H  12)    176.8296         0.007230   
     78. D(O   6,Co  7,O   2,Mn  8)    147.7930         0.006566   
     79. D(O   2,Co  7,O   6,H  12)     83.0865         0.007230   
     80. D(O   1,Co  7,O   2,Mn  8)    -39.2588         0.006566   
     81. D(O   2,Co  7,O   0,Mn  8)    -57.7254         0.005101   
     82. D(O   1,Co  7,O   0,Mn  8)     57.7237         0.005101   
     83. D(O   0,Co  7,O   2,Mn  8)     49.6299         0.006566   
     84. D(O   0,Co  7,O   1,Mn  8)    -49.6298         0.006566   
     85. D(O   6,Co  7,O   1,Mn  8)   -147.7938         0.006566   
     86. D(O   2,Co  7,O   1,Mn  8)     39.2595         0.006566   
     87. D(O   1,Co  7,O   6,H  12)    -89.3937         0.007230   
     88. D(O   2,Mn  8,O   0,Co  7)     45.9544         0.004839   
     89. D(O   3,Mn  8,O   2,Co  7)   -155.4522         0.001901   
     90. D(O   1,Mn  8,O   0,Co  7)    -45.9545         0.004839   
     91. D(O   0,Mn  8,Co  7,O   6)      0.0192         0.004969   
     92. D(Co  7,Mn  8,O   5,Co 10)   -168.5729         0.001902   
     93. D(O   4,Mn  8,O   5,Co 10)    -28.4029         0.001902   
     94. D(O   2,Mn  8,O   1,Co  7)    -28.4098         0.001902   
     95. D(O   4,Mn  8,O   1,Co  7)    146.3900         0.001902   
     96. D(O   0,Mn  8,O   5,Co 10)   -178.3719         0.001902   
     97. D(O   5,Mn  8,O   1,Co  7)   -123.5802         0.001902   
     98. D(Co  7,Mn  8,O   4,Co 10)    159.6565         0.001902   
     99. D(O   5,Mn  8,O   4,Co 10)     28.4035         0.001902   
    100. D(O   3,Mn  8,O   4,Co 10)    -49.7292         0.001902   
    101. D(O   2,Mn  8,Co  7,O   0)   -109.7541         0.004969   
    102. D(O   4,Mn  8,O   2,Co  7)    -98.4234         0.001901   
    103. D(O   5,Mn  8,O   2,Co  7)    125.6776         0.001901   
    104. D(Co 10,Mn  8,O   2,Co  7)    159.5924         0.001901   
    105. D(Co 10,Mn  8,O   1,Co  7)   -169.5780         0.001902   
    106. D(O   2,Mn  8,O   4,Co 10)   -107.7209         0.001902   
    107. D(O   1,Mn  8,Co  7,O   0)    109.7546         0.004969   
    108. D(O   0,Mn  8,Co  7,O   1)   -109.7546         0.004969   
    109. D(O   1,Mn  8,O   4,Co 10)    125.6704         0.001902   
    110. D(Co 10,Mn  8,O   0,Co  7)   -167.3838         0.004839   
    111. D(O   0,Mn  8,O   4,Co 10)   -155.5974         0.001902   
    112. D(O   5,Mn  8,O   0,Co  7)     10.7399         0.004839   
    113. D(O   0,Mn  8,O   1,Co  7)     49.7306         0.001902   
    114. D(O   1,Mn  8,Co  7,O   2)   -140.4913         0.004969   
    115. D(O   0,Mn  8,O   2,Co  7)    -49.7309         0.001901   
    116. D(O   0,Mn  8,Co  7,O   2)    109.7541         0.004969   
    117. D(O   3,Mn  8,O   1,Co  7)    178.0415         0.001902   
    118. D(O   1,Mn  8,O   5,Co 10)   -122.7839         0.001902   
    119. D(O   2,Mn  8,O   5,Co 10)    147.0903         0.001902   
    120. D(O   3,Mn  8,O   5,Co 10)     49.7375         0.001902   
    121. D(Co 10,Mn  8,Co  7,O   1)     37.3229         0.004969   
    122. D(O   5,Mn  8,O   3,Co 10)    -45.9615         0.004837   
    123. D(O   1,Mn  8,Co  7,O   6)    109.7737         0.004969   
    124. D(O   4,Mn  8,O   3,Co 10)     45.9532         0.004837   
    125. D(O   2,Mn  8,O   3,Co 10)   -139.5982         0.004837   
    126. D(O   4,Mn  8,O   0,Co  7)   -138.9518         0.004839   
    127. D(O   1,Mn  8,O   3,Co 10)     13.6545         0.004837   
    128. D(O   4,Mn  8,Co  7,O   2)    171.3254         0.004969   
    129. D(O   4,Mn  8,Co  7,O   1)    -48.1833         0.004969   
    130. D(O   2,Mn  8,Co  7,O   1)    140.4913         0.004969   
    131. D(O   2,Mn  8,Co  7,O   6)   -109.7350         0.004969   
    132. D(O   3,Mn  8,Co  7,O   0)    -69.7876         0.004969   
    133. D(O   3,Mn  8,Co  7,O   1)   -179.5422         0.004969   
    134. D(O   3,Mn  8,Co  7,O   2)     39.9665         0.004969   
    135. D(O   3,Mn  8,Co  7,O   6)    -69.7685         0.004969   
    136. D(O   4,Mn  8,Co  7,O   0)     61.5712         0.004969   
    137. D(O   0,Mn  8,O   3,Co 10)    140.2152         0.004837   
    138. D(O   3,Mn  8,O   0,Co  7)    141.0974         0.004839   
    139. D(O   4,Mn  8,Co  7,O   6)     61.5904         0.004969   
    140. D(O   5,Mn  8,Co  7,O   0)   -178.3015         0.004969   
    141. D(O   5,Mn  8,Co  7,O   1)     71.9439         0.004969   
    142. D(O   5,Mn  8,Co  7,O   2)    -68.5474         0.004969   
    143. D(O   5,Mn  8,Co  7,O   6)   -178.2823         0.004969   
    144. D(Co 10,Mn  8,Co  7,O   0)    147.0775         0.004969   
    145. D(O   1,Mn  8,O   2,Co  7)     28.4100         0.001901   
    146. D(Co 10,Mn  8,Co  7,O   2)   -103.1684         0.004969   
    147. D(Co 10,Mn  8,Co  7,O   6)    147.0967         0.004969   
    148. D(Co  7,Mn  8,O   3,Co 10)   -168.6336         0.004837   
    149. D(Mn  8,Co 10,O   9,H  11)    173.7554         0.007229   
    150. D(O   4,Co 10,O   9,H  11)     80.0239         0.007229   
    151. D(O   3,Co 10,O   9,H  11)    173.7938         0.007229   
    152. D(O   9,Co 10,Mn  8,Co  7)    151.1154         0.004969   
    153. D(O   9,Co 10,Mn  8,O   4)   -109.7096         0.004969   
    154. D(O   9,Co 10,Mn  8,O   3)      0.0471         0.004969   
    155. D(O   9,Co 10,Mn  8,O   2)     61.7973         0.004969   
    156. D(O   9,Co 10,Mn  8,O   0)    -70.5581         0.004969   
    157. D(O   5,Co 10,Mn  8,Co  7)     41.3267         0.004969   
    158. D(O   5,Co 10,Mn  8,O   4)    140.5017         0.004969   
    159. D(O   5,Co 10,Mn  8,O   3)   -109.7416         0.004969   
    160. D(O   5,Co 10,Mn  8,O   2)    -47.9914         0.004969   
    161. D(O   5,Co 10,Mn  8,O   1)     72.5750         0.004969   
    162. D(O   5,Co 10,Mn  8,O   0)    179.6532         0.004969   
    163. D(O   4,Co 10,Mn  8,O   5)   -140.5017         0.004969   
    164. D(O   4,Co 10,Mn  8,O   3)    109.7567         0.004969   
    165. D(O   4,Co 10,Mn  8,O   2)    171.5069         0.004969   
    166. D(O   4,Co 10,Mn  8,O   1)    -67.9268         0.004969   
    167. D(O   4,Co 10,Mn  8,O   0)     39.1515         0.004969   
    168. D(O   4,Co 10,Mn  8,Co  7)    -99.1750         0.004969   
    169. D(O   3,Co 10,Mn  8,Co  7)    151.0683         0.004969   
    170. D(O   3,Co 10,Mn  8,O   5)    109.7416         0.004969   
    171. D(O   3,Co 10,Mn  8,O   4)   -109.7567         0.004969   
    172. D(O   3,Co 10,Mn  8,O   2)     61.7502         0.004969   
    173. D(O   3,Co 10,Mn  8,O   1)   -177.6834         0.004969   
    174. D(O   3,Co 10,Mn  8,O   0)    -70.6052         0.004969   
    175. D(O   9,Co 10,O   5,Mn  8)   -147.8156         0.006565   
    176. D(O   9,Co 10,Mn  8,O   1)   -177.6364         0.004969   
    177. D(O   4,Co 10,O   5,Mn  8)     39.2515         0.006565   
    178. D(O   3,Co 10,O   5,Mn  8)    -49.6372         0.006565   
    179. D(O   9,Co 10,O   4,Mn  8)    147.8131         0.006566   
    180. D(O   9,Co 10,Mn  8,O   5)    109.7887         0.004969   
    181. D(O   5,Co 10,O   4,Mn  8)    -39.2509         0.006566   
    182. D(O   3,Co 10,O   4,Mn  8)     49.6307         0.006566   
    183. D(O   9,Co 10,O   3,Mn  8)   -179.9773         0.005101   
    184. D(O   5,Co 10,O   9,H  11)    -92.4431         0.007229   
    185. D(O   5,Co 10,O   3,Mn  8)     57.7314         0.005101   
    186. D(O   4,Co 10,O   3,Mn  8)    -57.7238         0.005101   
    -----------------------------------------------------------------

Number of atoms                         .... 13
Number of degrees of freedom            .... 186

         *************************************************************
         *                GEOMETRY OPTIMIZATION CYCLE   1            *
         *************************************************************
---------------------------------
CARTESIAN COORDINATES (ANGSTROEM)
---------------------------------
  O      0.216214   -0.006219    1.965016
  O      1.457860    1.465908    0.170578
  O      1.461175   -1.657734    0.336658
  O     -1.619033   -1.285334   -0.190267
  O     -1.795432    1.335463   -0.018287
  O     -0.178454   -0.282819   -2.151821
  O      2.928865    0.033011    2.655076
  Co     1.916410   -0.048912    1.128433
  Mn    -0.107478   -0.107705    0.062356
  O     -3.398012   -0.438743   -2.179417
  Co    -1.827952    0.136125   -1.426456
  H     -3.665118    0.296023   -2.786998
  H      3.863775   -0.035801    2.336404

----------------------------
CARTESIAN COORDINATES (A.U.)
----------------------------
  NO LB      ZA    FRAG     MASS         X           Y           Z
   0 O     8.0000    0    15.999    0.408585   -0.011752    3.713342
   1 O     8.0000    0    15.999    2.754956    2.770165    0.322346
   2 O     8.0000    0    15.999    2.761221   -3.132663    0.636191
   3 O     8.0000    0    15.999   -3.059529   -2.428929   -0.359553
   4 O     8.0000    0    15.999   -3.392875    2.523659   -0.034557
   5 O     8.0000    0    15.999   -0.337229   -0.534450   -4.066352
   6 O     8.0000    0    15.999    5.534753    0.062382    5.017367
   7 Co   27.0000    0    58.930    3.621490   -0.092430    2.132429
   8 Mn   25.0000    0    54.940   -0.203104   -0.203533    0.117836
   9 O     8.0000    0    15.999   -6.421312   -0.829104   -4.118501
  10 Co   27.0000    0    58.930   -3.454329    0.257239   -2.695611
  11 H     1.0000    0     1.008   -6.926069    0.559402   -5.266663
  12 H     1.0000    0     1.008    7.301477   -0.067654    4.415164

--------------------------------
INTERNAL COORDINATES (ANGSTROEM)
--------------------------------
 O      0   0   0     0.000000000000     0.00000000     0.00000000
 O      1   0   0     2.632270964261     0.00000000     0.00000000
 O      1   2   0     2.632295474089    72.90719715     0.00000000
 O      1   2   3     3.106366292684    92.06211494   295.99803715
 O      4   1   2     2.632350782629    65.43634172   300.82195355
 O      4   1   2     2.632109092607    92.11363158    10.93474705
 O      1   2   3     2.799320854118    72.72926732    76.71338657
 Co     7   1   2     1.833689001549    42.19145714   321.52604560
 Mn     1   2   3     1.932664221912    55.75355561   300.19071432
 O      4   1   2     2.799678611238   138.06066238   304.72821162
 Co    10   4   1     1.833715323747    42.18296082    34.77288873
 H     10   4   1     0.990142091597   146.28319997    23.90432936
 H      7   1   2     0.990123044388   146.58339540   315.97406516

---------------------------
INTERNAL COORDINATES (A.U.)
---------------------------
 O      0   0   0     0.000000000000     0.00000000     0.00000000
 O      1   0   0     4.974271232725     0.00000000     0.00000000
 O      1   2   0     4.974317549589    72.90719715     0.00000000
 O      1   2   3     5.870181564817    92.06211494   295.99803715
 O      4   1   2     4.974422067583    65.43634172   300.82195355
 O      4   1   2     4.973965339630    92.11363158    10.93474705
 O      1   2   3     5.289949775258    72.72926732    76.71338657
 Co     7   1   2     3.465170027712    42.19145714   321.52604560
 Mn     1   2   3     3.652206088242    55.75355561   300.19071432
 O      4   1   2     5.290625838236   138.06066238   304.72821162
 Co    10   4   1     3.465219769457    42.18296082    34.77288873
 H     10   4   1     1.871097386787   146.28319997    23.90432936
 H      7   1   2     1.871061392778   146.58339540   315.97406516

---------------------
BASIS SET INFORMATION
---------------------
There are 4 groups of distinct atoms

 Group   1 Type O   : 7s4p1d contracted to 3s2p1d pattern {511/31/1}
 Group   2 Type Co  : 14s9p5d1f contracted to 5s3p2d1f pattern {63311/531/41/1}
 Group   3 Type Mn  : 14s9p5d1f contracted to 5s3p2d1f pattern {63311/531/41/1}
 Group   4 Type H   : 4s1p contracted to 2s1p pattern {31/1}

Atom   0O    basis set group =>   1
Atom   1O    basis set group =>   1
Atom   2O    basis set group =>   1
Atom   3O    basis set group =>   1
Atom   4O    basis set group =>   1
Atom   5O    basis set group =>   1
Atom   6O    basis set group =>   1
Atom   7Co   basis set group =>   2
Atom   8Mn   basis set group =>   3
Atom   9O    basis set group =>   1
Atom  10Co   basis set group =>   2
Atom  11H    basis set group =>   4
Atom  12H    basis set group =>   4
---------------------------------
AUXILIARY/J BASIS SET INFORMATION
---------------------------------
There are 4 groups of distinct atoms

 Group   1 Type O   : 12s5p4d2f1g contracted to 6s4p3d1f1g pattern {711111/2111/211/2/1}
 Group   2 Type Co  : 19s5p5d3f3g contracted to 8s5p5d2f3g pattern {121111111/11111/11111/21/111}
 Group   3 Type Mn  : 19s5p5d3f3g contracted to 8s5p5d2f3g pattern {121111111/11111/11111/21/111}
 Group   4 Type H   : 5s2p1d contracted to 3s1p1d pattern {311/2/1}

Atom   0O    basis set group =>   1
Atom   1O    basis set group =>   1
Atom   2O    basis set group =>   1
Atom   3O    basis set group =>   1
Atom   4O    basis set group =>   1
Atom   5O    basis set group =>   1
Atom   6O    basis set group =>   1
Atom   7Co   basis set group =>   2
Atom   8Mn   basis set group =>   3
Atom   9O    basis set group =>   1
Atom  10Co   basis set group =>   2
Atom  11H    basis set group =>   4
Atom  12H    basis set group =>   4


           ************************************************************
           *        Program running with 5 parallel MPI-processes     *
           *              working on a common directory               *
           ************************************************************
------------------------------------------------------------------------------
                           ORCA GTO INTEGRAL CALCULATION
                           -- RI-GTO INTEGRALS CHOSEN --
------------------------------------------------------------------------------
------------------------------------------------------------------------------
                   ___                                                        
                  /   \      - P O W E R E D   B Y -                         
                 /     \                                                     
                 |  |  |   _    _      __       _____    __    __             
                 |  |  |  | |  | |    /  \     |  _  \  |  |  /  |          
                  \  \/   | |  | |   /    \    | | | |  |  | /  /          
                 / \  \   | |__| |  /  /\  \   | |_| |  |  |/  /          
                |  |  |   |  __  | /  /__\  \  |    /   |      \           
                |  |  |   | |  | | |   __   |  |    \   |  |\   \          
                \     /   | |  | | |  |  |  |  | |\  \  |  | \   \       
                 \___/    |_|  |_| |__|  |__|  |_| \__\ |__|  \__/        
                                                                              
                      - O R C A' S   B I G   F R I E N D -                    
                                      &                                       
                       - I N T E G R A L  F E E D E R -                       
                                                                              
 v1 FN, 2020, v2 2021                                                         
------------------------------------------------------------------------------


Reading SHARK input file CoMn_COMPLETE.SHARKINP.tmp ... ok
----------------------
SHARK INTEGRAL PACKAGE
----------------------

Number of atoms                             ...     13
Number of basis functions                   ...    215
Number of shells                            ...     87
Maximum angular momentum                    ...      3
Integral batch strategy                     ... SHARK/LIBINT Hybrid
RI-J (if used) integral strategy            ... SPLIT-RIJ (Revised 2003 algorithm where possible)
Printlevel                                  ...      1
Contraction scheme used                     ... SEGMENTED contraction
Coulomb Range Separation                    ... NOT USED
Exchange Range Separation                   ... NOT USED
Finite Nucleus Model                        ... NOT USED
Auxiliary Coulomb fitting basis             ... AVAILABLE
   # of basis functions in Aux-J            ...    681
   # of shells in Aux-J                     ...    199
   Maximum angular momentum in Aux-J        ...      4
Auxiliary J/K fitting basis                 ... NOT available
Auxiliary Correlation fitting basis         ... NOT available
Auxiliary 'external' fitting basis          ... NOT available
Integral threshold                          ...     2.500000e-11
Primitive cut-off                           ...     2.500000e-12
Primitive pair pre-selection threshold      ...     2.500000e-12

Calculating pre-screening integrals         ... done (  0.0 sec) Dimension = 87
Organizing shell pair data                  ... done (  0.0 sec)
Shell pair information
Total number of shell pairs                 ...      3828
Shell pairs after pre-screening             ...      3047
Total number of primitive shell pairs       ...     18951
Primitive shell pairs kept                  ...      9673
          la=0 lb=0:    721 shell pairs
          la=1 lb=0:    930 shell pairs
          la=1 lb=1:    329 shell pairs
          la=2 lb=0:    474 shell pairs
          la=2 lb=1:    314 shell pairs
          la=2 lb=2:     84 shell pairs
          la=3 lb=0:     99 shell pairs
          la=3 lb=1:     61 shell pairs
          la=3 lb=2:     30 shell pairs
          la=3 lb=3:      5 shell pairs

Calculating one electron integrals          ... done (  0.0 sec)
Calculating RI/J V-Matrix + Cholesky decomp.... done (  0.0 sec)
Calculating Nuclear repulsion               ... done (  0.0 sec) ENN=   1761.152348093701 Eh

SHARK setup successfully completed in   0.2 seconds

Maximum memory used throughout the entire GTOINT-calculation: 16.9 MB


           ************************************************************
           *        Program running with 5 parallel MPI-processes     *
           *              working on a common directory               *
           ************************************************************
-------------------------------------------------------------------------------
                                 ORCA SCF
-------------------------------------------------------------------------------

------------
SCF SETTINGS
------------
Hamiltonian:
 Density Functional     Method          .... DFT(GTOs)
 Exchange Functional    Exchange        .... Slater
   X-Alpha parameter    XAlpha          ....  0.666667
 Correlation Functional Correlation     .... VWN-5
 Gradients option       PostSCFGGA      .... off
   Density functional embedding theory  .... OFF
 RI-approximation to the Coulomb term is turned on
   Number of AuxJ basis functions       .... 681


General Settings:
 Integral files         IntName         .... CoMn_COMPLETE
 Hartree-Fock type      HFTyp           .... UHF
 Total Charge           Charge          ....    0
 Multiplicity           Mult            ....    2
 Number of Electrons    NEL             ....  145
 Basis Dimension        Dim             ....  215
 Nuclear Repulsion      ENuc            ....   1761.1523480937 Eh

Convergence Acceleration:
 DIIS                   CNVDIIS         .... on
   Start iteration      DIISMaxIt       ....    12
   Startup error        DIISStart       ....  0.200000
   # of expansion vecs  DIISMaxEq       ....     5
   Bias factor          DIISBfac        ....   1.050
   Max. coefficient     DIISMaxC        ....  10.000
 Trust-Rad. Augm. Hess. CNVTRAH         .... auto
   Auto Start mean grad. ratio tolernc. ....  1.125000
   Auto Start start iteration           ....    20
   Auto Start num. interpolation iter.  ....    10
   Max. Number of Micro iterations      ....    16
   Max. Number of Macro iterations      .... Maxiter - #DIIS iter
   Number of Davidson start vectors     ....     2
   Converg. threshold I  (grad. norm)   ....   1.000e-05
   Converg. threshold II (energy diff.) ....   1.000e-08
   Grad. Scal. Fac. for Micro threshold ....   0.100
   Minimum threshold for Micro iter.    ....   0.010
   NR start threshold (gradient norm)   ....   0.001
   Initial trust radius                 ....   0.400
   Minimum AH scaling param. (alpha)    ....   1.000
   Maximum AH scaling param. (alpha)    .... 1000.000
   Orbital update algorithm             .... Taylor
   White noise on init. David. guess    .... on
   Maximum white noise                  ....   0.010
   Quad. conv. algorithm                .... NR
 SOSCF                  CNVSOSCF        .... off
 Level Shifting         CNVShift        .... on
   Level shift para.    LevelShift      ....    0.2500
   Turn off err/grad.   ShiftErr        ....    0.0010
 Zerner damping         CNVZerner       .... off
 Static damping         CNVDamp         .... on
   Fraction old density DampFac         ....    0.7000
   Max. Damping (<1)    DampMax         ....    0.9800
   Min. Damping (>=0)   DampMin         ....    0.0000
   Turn off err/grad.   DampErr         ....    0.1000
 Fernandez-Rico         CNVRico         .... off

SCF Procedure:
 Maximum # iterations   MaxIter         ....   500
 SCF integral mode      SCFMode         .... Direct
   Integral package                     .... SHARK and LIBINT hybrid scheme
 Reset frequency        DirectResetFreq ....    20
 Integral Threshold     Thresh          ....  2.500e-11 Eh
 Primitive CutOff       TCut            ....  2.500e-12 Eh

Convergence Tolerance:
 Convergence Check Mode ConvCheckMode   .... Total+1el-Energy
 Convergence forced     ConvForced      .... 0
 Energy Change          TolE            ....  1.000e-08 Eh
 1-El. energy change                    ....  1.000e-05 Eh
 DIIS Error             TolErr          ....  5.000e-07


Diagonalization of the overlap matrix:
Smallest eigenvalue                        ... 1.260e-02
Time for diagonalization                   ...    0.003 sec
Threshold for overlap eigenvalues          ... 1.000e-08
Number of eigenvalues below threshold      ... 0
Time for construction of square roots      ...    0.007 sec
Total time needed                          ...    0.011 sec

Time for model grid setup =    0.094 sec

------------------------------
INITIAL GUESS: MODEL POTENTIAL
------------------------------
Loading Hartree-Fock densities                     ... done
Calculating cut-offs                               ... done
Initializing the effective Hamiltonian             ... done
Setting up the integral package (SHARK)            ... done
Starting the Coulomb interaction                   ... done (   0.0 sec)
Reading the grid                                   ... done
Mapping shells                                     ... done
Starting the XC term evaluation                    ... done (   0.0 sec)
  promolecular density results
     # of electrons  =    144.999277441
     EX              =   -215.863709819
     EC              =    -11.357592917
     EX+EC           =   -227.221302736
Transforming the Hamiltonian                       ... done (   0.0 sec)
Diagonalizing the Hamiltonian                      ... done (   0.0 sec)
Back transforming the eigenvectors                 ... done (   0.0 sec)
Now organizing SCF variables                       ... done
                      ------------------
                      INITIAL GUESS DONE (   0.2 sec)
                      ------------------
-------------------
DFT GRID GENERATION
-------------------

General Integration Accuracy     IntAcc      ... 4.388
Radial Grid Type                 RadialGrid  ... OptM3 with GC (2021)
Angular Grid (max. ang.)         AngularGrid ... 4 (Lebedev-302)
Angular grid pruning method      GridPruning ... 4 (adaptive)
Weight generation scheme         WeightScheme... Becke
Basis function cutoff            BFCut       ... 1.0000e-11
Integration weight cutoff        WCut        ... 1.0000e-14
Angular grids for H and He will be reduced by one unit
Partially contracted basis set               ... off
Rotationally invariant grid construction     ... off

Total number of grid points                  ...    88782
Total number of batches                      ...     1394
Average number of points per batch           ...       63
Average number of grid points per atom       ...     6829
Time for grid setup =    0.391 sec

--------------
SCF ITERATIONS
--------------
ITER       Energy         Delta-E        Max-DP      RMS-DP      [F,P]     Damp
               ***  Starting incremental Fock matrix formation  ***
  0  -4502.7815915054   0.000000000000 0.93206499  0.00883698  0.4044981 0.7000
  1  -4504.8721040973  -2.090512591893 0.19794949  0.00245685  0.1047539 0.7000
                               ***Turning on DIIS***
  2  -4505.1857184308  -0.313614333585 0.18355745  0.00323680  0.1332417 0.7000
  3  -4504.1995914565   0.986126974369 0.13034146  0.00211652  0.2155906 0.7000
  4  -4501.6642954235   2.535296032990 0.10881517  0.00151377  0.3693265 0.7000
  5  -4500.1940777027   1.470217720833 0.08088078  0.00117549  0.5091503 0.7000
  6  -4499.7265152515   0.467562451109 0.05889249  0.00098084  0.6121409 0.7000
  7  -4499.7278643460  -0.001349094427 0.09934543  0.00193851  0.6831323 0.7000
  8  -4501.4222487842  -1.694384438275 0.19103709  0.00378938  0.6442012 0.7000
  9  -4505.0104836169  -3.588234832675 0.13391474  0.00213811  0.2046232 0.7000
 10  -4504.8618079682   0.148675648677 0.09299121  0.00170319  0.2685279 0.7000
 11  -4504.3211384194   0.540669548874 0.07812013  0.00148595  0.2221928 0.7000
 12  -4504.0124875613   0.308650858059 0.06885210  0.00151710  0.1987726 0.7000
 13  -4504.7551888942  -0.742701332922 0.04307791  0.00101658  0.2026071 0.7000
 14  -4505.1304589305  -0.375270036316 0.08333030  0.00145447  0.1949828 0.7000
 15  -4505.6991298225  -0.568670891924 0.13547202  0.00192558  0.1710188 0.7000
 16  -4505.7877991558  -0.088669333363 0.11512311  0.00182212  0.1975501 0.7000
 17  -4504.8959791122   0.891820043671 0.06816406  0.00137356  0.3302806 0.7000
 18  -4503.7639976516   1.131981460573 0.06132881  0.00117891  0.4686861 0.7000
 19  -4503.0752294191   0.688768232498 0.06348541  0.00130954  0.5234031 0.7000
               *** Restarting incremental Fock matrix formation ***
                                   *** Resetting DIIS ***

 WARNING: the maximum gradient error descreased on average only by a factor   0.9
          during the last 20 iterations

                      *** Initiating the TRAH-SCF procedure ***


TRAH GRID
---------

General Integration Accuracy     IntAcc      ... 3.467
Radial Grid Type                 RadialGrid  ... OptM3 with GC (2021)
Angular Grid (max. ang.)         AngularGrid ... 1 (Lebedev-50)
Angular grid pruning method      GridPruning ... 4 (adaptive)
Weight generation scheme         WeightScheme... Becke
Basis function cutoff            BFCut       ... 1.0000e-11
Integration weight cutoff        WCut        ... 1.0000e-14
Angular grids for H and He will be reduced by one unit
Partially contracted basis set               ... off
Rotationally invariant grid construction     ... off

Total number of grid points                  ...    21252
Total number of batches                      ...      339
Average number of points per batch           ...       62
Average number of grid points per atom       ...     1635

 --------------------------------------------------------------------------------------------
   Iter.        energy            ||Error||_2        Shift      TRadius  Mac/Mic        Rej.
 --------------------------------------------------------------------------------------------
WARNING: 1102 diagonal Hessian elements are negative!
    0      -4501.546165636662     4.058339e+00                     0.400 (TRAH MAcro)   No
WARNING : negative HOMO - LUMO gap : (op = alpha) -1.519504
WARNING : negative HOMO - LUMO gap : (op =  beta) -1.654169
    0     dE    -2.691556e+00     6.175282e-01    -6.6764e+00      0.400 (TRAH MIcro)
    0     dE    -2.721910e+00     2.994469e-01    -6.9978e+00      0.400 (TRAH MIcro)
    0     dE    -2.725229e+00     1.855687e-01    -7.0222e+00      0.400 (TRAH MIcro)
    0     dE    -2.727961e+00     2.197301e-02    -7.0369e+00      0.400 (TRAH MIcro)
    0     dE    -2.728003e+00     1.025568e-02    -7.0374e+00      0.400 (TRAH MIcro)
    0     dE    -2.728005e+00     3.878209e-03    -7.0375e+00      0.400 (TRAH MIcro)
WARNING: 581 diagonal Hessian elements are negative!
    1      -4504.241263972634     2.696452e+00                     0.480 (TRAH MAcro)   No
WARNING : negative HOMO - LUMO gap : (op = alpha) -0.905033
WARNING : negative HOMO - LUMO gap : (op =  beta) -1.030420
    1     dE    -1.766570e+00     6.728196e-01    -2.0498e+00      0.480 (TRAH MIcro)
    1     dE    -1.867866e+00     1.371672e-01    -2.7904e+00      0.480 (TRAH MIcro)
    1     dE    -1.871204e+00     5.663518e-02    -2.7981e+00      0.480 (TRAH MIcro)
    1     dE    -1.871845e+00     1.223018e-02    -2.7970e+00      0.480 (TRAH MIcro)
    1     dE    -1.871882e+00     4.464354e-03    -2.7965e+00      0.480 (TRAH MIcro)
WARNING: 225 diagonal Hessian elements are negative!
    2      -4506.064596912076     1.203106e+00                     0.576 (TRAH MAcro)   No
WARNING : negative HOMO - LUMO gap : (op = alpha) -0.316100
WARNING : negative HOMO - LUMO gap : (op =  beta) -0.397040
    2     dE    -4.565693e-01     5.319351e-01    -4.0922e-01      0.340 (TRAH MIcro)
    2     dE    -6.451724e-01     2.002336e-01    -5.1650e-01      0.499 (TRAH MIcro)
    2     dE    -6.746809e-01     9.039903e-02    -5.2885e-01      0.525 (TRAH MIcro)
    2     dE    -6.860243e-01     5.565351e-02    -5.3236e-01      0.537 (TRAH MIcro)
    2     dE    -6.904472e-01     3.101843e-02    -5.3332e-01      0.543 (TRAH MIcro)
    2     dE    -6.924728e-01     1.385914e-02    -5.3366e-01      0.546 (TRAH MIcro)
    2     dE    -6.934381e-01     1.002501e-02    -5.3377e-01      0.547 (TRAH MIcro)
    2     dE    -6.939008e-01     5.272216e-03    -5.3381e-01      0.548 (TRAH MIcro)
WARNING: 23 diagonal Hessian elements are negative!
    3      -4506.721169952279     2.171277e-01                     0.691 (TRAH MAcro)   No
WARNING : negative HOMO - LUMO gap : (op = alpha) -0.033451
WARNING : negative HOMO - LUMO gap : (op =  beta) -0.041454
    3     dE    -3.609189e-02     1.943895e-01    -3.5169e-02      0.162 (TRAH MIcro)
    3     dE    -5.299338e-02     1.845404e-01    -4.9587e-02      0.262 (TRAH MIcro)
    3     dE    -6.219720e-02     1.576620e-01    -5.6261e-02      0.325 (TRAH MIcro)
    3     dE    -6.726556e-02     1.128725e-01    -5.9440e-02      0.363 (TRAH MIcro)
    3     dE    -7.178786e-02     4.044262e-02    -6.1599e-02      0.407 (TRAH MIcro)
    3     dE    -7.214358e-02     3.370205e-02    -6.1797e-02      0.409 (TRAH MIcro)
    3     dE    -7.230109e-02     3.226917e-02    -6.2034e-02      0.407 (TRAH MIcro)
    3     dE    -7.246365e-02     3.115679e-02    -6.2333e-02      0.403 (TRAH MIcro)
    3     dE    -7.299338e-02     3.674318e-02    -6.2719e-02      0.405 (TRAH MIcro)
    3     dE    -7.523038e-02     3.169438e-02    -6.3651e-02      0.427 (TRAH MIcro)
    3     dE    -7.706679e-02     1.628243e-02    -6.4095e-02      0.450 (TRAH MIcro)
    3     dE    -7.731505e-02     1.359723e-02    -6.4143e-02      0.453 (TRAH MIcro)
    3     dE    -7.758121e-02     1.089953e-02    -6.4191e-02      0.457 (TRAH MIcro)
    3     dE    -7.773305e-02     1.194218e-02    -6.4219e-02      0.459 (TRAH MIcro)
    4      -4506.798656832262     4.177852e-02                     0.829 (TRAH MAcro)   No
WARNING : small    HOMO - LUMO gap : (op = alpha) 0.003057
WARNING : small    HOMO - LUMO gap : (op =  beta) 0.002545
    4     dE    -1.635670e-04     1.914968e-01    -1.6356e-04      0.004 (TRAH MIcro)
    4     dE    -2.011976e-03     1.509283e-01    -1.9832e-03      0.121 (TRAH MIcro)
    4     dE    -8.384995e-03     1.371552e-01    -7.1619e-03      0.413 (TRAH MIcro)
    4     dE    -1.902675e-02     7.108037e-02    -1.2017e-02      0.764 (TRAH MIcro)
    4     dE    -2.130663e-02     6.743601e-02    -1.3004e-02      0.799 (TRAH MIcro)
    4     dE    -2.312258e-02     5.927325e-02    -1.4018e-02      0.806 (TRAH MIcro)
    4     dE    -2.675265e-02     3.616848e-02    -1.5912e-02      0.825 (TRAH MIcro)
    4     dE    -2.844067e-02     6.427915e-02    -1.9283e-02      0.829 (TRAH MIcro)
    4     dE    -3.056779e-02     3.397275e-02    -2.5418e-02      0.829 (TRAH MIcro)
    4     dE    -2.846118e-02     1.594933e-02    -2.7137e-02      0.773 (TRAH MIcro)
    4     dE    -2.985169e-02     1.246837e-02    -2.7562e-02      0.795 (TRAH MIcro)
    4     dE    -3.010092e-02     6.967830e-03    -2.7626e-02      0.799 (TRAH MIcro)
    4     dE    -3.029940e-02     7.848510e-03    -2.7666e-02      0.802 (TRAH MIcro)
    4     dE    -3.052025e-02     3.559334e-03    -2.7690e-02      0.807 (TRAH MIcro)
WARNING: 1 diagonal Hessian elements are negative!
    5      -4506.817385136762     8.696093e-02                     0.829 (TRAH MAcro)   No
WARNING : negative HOMO - LUMO gap : (op = alpha) -0.001892
WARNING : small    HOMO - LUMO gap : (op =  beta) 0.013030
    5     dE    -2.116233e-03     1.366061e-01    -2.1150e-03      0.024 (TRAH MIcro)
    5     dE    -3.694506e-03     3.216224e-02    -3.6583e-03      0.099 (TRAH MIcro)
    5     dE    -4.581740e-03     7.423635e-02    -4.4628e-03      0.163 (TRAH MIcro)
    5     dE    -5.441691e-03     4.461122e-02    -5.1692e-03      0.230 (TRAH MIcro)
    5     dE    -6.000543e-03     2.060254e-02    -5.5752e-03      0.276 (TRAH MIcro)
    5     dE    -6.259144e-03     1.557860e-02    -5.7494e-03      0.298 (TRAH MIcro)
    5     dE    -6.369462e-03     1.655866e-02    -5.8270e-03      0.305 (TRAH MIcro)
    5     dE    -6.622400e-03     1.203539e-02    -6.0019e-03      0.322 (TRAH MIcro)
    5     dE    -6.763847e-03     1.007211e-02    -6.0822e-03      0.335 (TRAH MIcro)
    5     dE    -7.044141e-03     5.047970e-03    -6.2056e-03      0.368 (TRAH MIcro)
WARNING: 1 diagonal Hessian elements are negative!
    6      -4506.823298538963     1.910201e-02                     0.995 (TRAH MAcro)   No
WARNING : negative HOMO - LUMO gap : (op = alpha) -0.000702
WARNING : small    HOMO - LUMO gap : (op =  beta) 0.019964
    6     dE    -1.185269e-04     2.919734e-02    -1.1852e-04      0.006 (TRAH MIcro)
    6     dE    -4.640027e-04     2.338391e-02    -4.6245e-04      0.058 (TRAH MIcro)
    6     dE    -8.546233e-04     2.892428e-02    -8.4339e-04      0.115 (TRAH MIcro)
    6     dE    -1.011664e-03     1.217124e-02    -9.9116e-04      0.144 (TRAH MIcro)
    6     dE    -1.040726e-03     5.933386e-03    -1.0181e-03      0.149 (TRAH MIcro)
    6     dE    -1.053510e-03     5.876627e-03    -1.0301e-03      0.151 (TRAH MIcro)
    6     dE    -1.074901e-03     3.596768e-03    -1.0506e-03      0.152 (TRAH MIcro)
    6     dE    -1.082427e-03     2.435890e-03    -1.0577e-03      0.153 (TRAH MIcro)
    6     dE    -1.086395e-03     2.813058e-03    -1.0613e-03      0.154 (TRAH MIcro)
    6     dE    -1.093428e-03     2.403457e-03    -1.0674e-03      0.156 (TRAH MIcro)
    6     dE    -1.097045e-03     1.410064e-03    -1.0705e-03      0.158 (TRAH MIcro)
    7      -4506.824408762276     3.966568e-03                     1.194 (TRAH MAcro)   No
WARNING : small    HOMO - LUMO gap : (op = alpha) 0.000572
    7     dE    -1.708408e-06     1.584636e-02    -1.7084e-06      0.000 (TRAH MIcro)
    7     dE    -2.700993e-06     1.325060e-02    -2.7010e-06      0.003 (TRAH MIcro)
    7     dE    -7.341501e-06     2.698409e-03    -7.3413e-06      0.005 (TRAH MIcro)
    7     dE    -1.506199e-05     2.845124e-03    -1.5057e-05      0.017 (TRAH MIcro)
    7     dE    -2.174338e-05     2.094378e-03    -2.1725e-05      0.029 (TRAH MIcro)
    7     dE    -2.296629e-05     1.670062e-03    -2.2943e-05      0.032 (TRAH MIcro)
    7     dE    -2.410826e-05     1.354932e-03    -2.4081e-05      0.034 (TRAH MIcro)
    7     dE    -2.541601e-05     8.997371e-04    -2.5383e-05      0.036 (TRAH MIcro)
    7     dE    -2.589881e-05     1.180628e-03    -2.5862e-05      0.038 (TRAH MIcro)
    7     dE    -2.802406e-05     1.155214e-03    -2.7966e-05      0.045 (TRAH MIcro)
    7     dE    -2.837435e-05     1.164102e-03    -2.8311e-05      0.047 (TRAH MIcro)
    7     dE    -2.917200e-05     8.592859e-04    -2.9096e-05      0.051 (TRAH MIcro)
    7     dE    -2.945476e-05     3.967925e-04    -2.9372e-05      0.053 (TRAH MIcro)
    7     dE    -2.963742e-05     4.104170e-04    -2.9550e-05      0.054 (TRAH MIcro)
    8      -4506.824438792859     8.712671e-04                           (NR   MAcro)
WARNING : small    HOMO - LUMO gap : (op = alpha) 0.000951
WARNING : small    HOMO - LUMO gap : (op =  beta) 0.019445
    8     dE    -9.551512e-08     7.529227e-04                           (NR   MIcro)
    8     dE    -3.186797e-07     2.880018e-04                           (NR   MIcro)
    8     dE    -3.692809e-07     2.703379e-04                           (NR   MIcro)
    8     dE    -4.359232e-07     3.379147e-04                           (NR   MIcro)
    8     dE    -5.394426e-07     2.257616e-04                           (NR   MIcro)
    8     dE    -5.645963e-07     1.682453e-04                           (NR   MIcro)
    8     dE    -5.895018e-07     2.161052e-04                           (NR   MIcro)
    8     dE    -6.305947e-07     1.656565e-04                           (NR   MIcro)
    8     dE    -6.423402e-07     1.731507e-04                           (NR   MIcro)
    8     dE    -6.784723e-07     1.448681e-04                           (NR   MIcro)
    8     dE    -6.877690e-07     1.082277e-04                           (NR   MIcro)
    8     dE    -6.974127e-07     1.084736e-04                           (NR   MIcro)
    8     dE    -7.073133e-07     7.697549e-05                           (NR   MIcro)
    8     dE    -7.111594e-07     6.634263e-05                           (NR   MIcro)
    8     dE    -7.229022e-07     4.491093e-05                           (NR   MIcro)
    9      -4506.824439523075     4.691640e-05                           (NR   MAcro)
WARNING : small    HOMO - LUMO gap : (op = alpha) 0.000830
WARNING : small    HOMO - LUMO gap : (op =  beta) 0.019288
    9     dE    -2.149602e-10     4.792740e-05                           (NR   MIcro)
    9     dE    -1.223461e-09     4.263289e-05                           (NR   MIcro)
    9     dE    -2.596774e-09     2.989303e-05                           (NR   MIcro)
    9     dE    -2.907068e-09     2.672973e-05                           (NR   MIcro)
    9     dE    -3.617992e-09     3.311462e-05                           (NR   MIcro)
    9     dE    -4.419592e-09     2.571559e-05                           (NR   MIcro)
    9     dE    -4.683450e-09     2.198861e-05                           (NR   MIcro)
    9     dE    -5.102293e-09     2.511154e-05                           (NR   MIcro)
    9     dE    -5.542638e-09     2.080556e-05                           (NR   MIcro)
    9     dE    -5.731989e-09     1.787200e-05                           (NR   MIcro)
    9     dE    -6.080144e-09     1.731226e-05                           (NR   MIcro)
    9     dE    -6.283469e-09     1.190099e-05                           (NR   MIcro)
    9     dE    -6.486901e-09     1.243640e-05                           (NR   MIcro)
    9     dE    -6.563594e-09     9.047601e-06                           (NR   MIcro)
    9     dE    -6.655159e-09     8.048230e-06                           (NR   MIcro)
   10      -4506.824439529717     8.018125e-06                           (NR   MAcro)
WARNING : small    HOMO - LUMO gap : (op = alpha) 0.000831
WARNING : small    HOMO - LUMO gap : (op =  beta) 0.019279

               *****************************************************
               *                     SUCCESS                       *
               *           SCF CONVERGED AFTER 143 CYCLES          *
               *****************************************************


----------------
TOTAL SCF ENERGY
----------------

Total Energy       :        -4506.82443953 Eh         -122636.92774 eV

Components:
Nuclear Repulsion  :         1761.15234809 Eh           47923.39177 eV
Electronic Energy  :        -6267.97678762 Eh         -170560.31951 eV
One Electron Energy:        -9754.72804579 Eh         -265439.64482 eV
Two Electron Energy:         3486.75125817 Eh           94879.32531 eV

Virial components:
Potential Energy   :        -9008.30921282 Eh         -245128.55578 eV
Kinetic Energy     :         4501.48477329 Eh          122491.62804 eV
Virial Ratio       :            2.00118620


DFT components:
N(Alpha)           :       72.999863486809 electrons
N(Beta)            :       71.999871485687 electrons
N(Total)           :      144.999734972496 electrons
E(X)               :     -215.948213089022 Eh       
E(C)               :      -11.379361889280 Eh       
E(XC)              :     -227.327574978302 Eh       
DFET-embed. en.    :        0.000000000000 Eh       

---------------
SCF CONVERGENCE
---------------

  Last Energy change         ...   -6.6420e-09  Tolerance :   1.0000e-08
  Last Orbital Gradient      ...    8.0181e-06  Tolerance :   1.0000e-05
  Last Orbital Rotation      ...    1.4255e-03

             **** THE GBW FILE WAS UPDATED (CoMn_COMPLETE.gbw) ****
             **** DENSITY CoMn_COMPLETE.scfp WAS UPDATED ****
             **** ENERGY FILE WAS UPDATED (CoMn_COMPLETE.en.tmp) ****
----------------------
UHF SPIN CONTAMINATION
----------------------

Warning: in a DFT calculation there is little theoretical justification to 
         calculate <S**2> as in Hartree-Fock theory. We will do it anyways
         but you should keep in mind that the values have only limited relevance

Expectation value of <S**2>     :     1.469381
Ideal value S*(S+1) for S=0.5   :     0.750000
Deviation                       :     0.719381

             **** THE GBW FILE WAS UPDATED (CoMn_COMPLETE.gbw) ****
             **** DENSITY CoMn_COMPLETE.scfp WAS UPDATED ****
----------------
ORBITAL ENERGIES
----------------
                 SPIN UP ORBITALS
  NO   OCC          E(Eh)            E(eV) 
   0   1.0000    -275.643158     -7500.6316 
   1   1.0000    -275.642695     -7500.6190 
   2   1.0000    -233.753529     -6360.7569 
   3   1.0000     -32.434440      -882.5860 
   4   1.0000     -32.434239      -882.5805 
   5   1.0000     -28.231607      -768.2211 
   6   1.0000     -28.231206      -768.2102 
   7   1.0000     -28.226065      -768.0703 
   8   1.0000     -28.226008      -768.0687 
   9   1.0000     -28.212022      -767.6881 
  10   1.0000     -28.211569      -767.6758 
  11   1.0000     -26.964642      -733.7452 
  12   1.0000     -23.175622      -630.6407 
  13   1.0000     -23.174919      -630.6216 
  14   1.0000     -23.168628      -630.4504 
  15   1.0000     -18.700738      -508.8730 
  16   1.0000     -18.700363      -508.8627 
  17   1.0000     -18.695902      -508.7414 
  18   1.0000     -18.695563      -508.7321 
  19   1.0000     -18.691134      -508.6116 
  20   1.0000     -18.690671      -508.5990 
  21   1.0000     -18.682973      -508.3896 
  22   1.0000     -18.682849      -508.3862 
  23   1.0000      -3.654022       -99.4310 
  24   1.0000      -3.653952       -99.4291 
  25   1.0000      -3.143291       -85.5333 
  26   1.0000      -2.404699       -65.4352 
  27   1.0000      -2.404529       -65.4306 
  28   1.0000      -2.399185       -65.2852 
  29   1.0000      -2.398630       -65.2700 
  30   1.0000      -2.373750       -64.5930 
  31   1.0000      -2.373535       -64.5872 
  32   1.0000      -2.060251       -56.0623 
  33   1.0000      -2.057632       -55.9910 
  34   1.0000      -2.054130       -55.8957 
  35   1.0000      -0.913522       -24.8582 
  36   1.0000      -0.913336       -24.8531 
  37   1.0000      -0.869206       -23.6523 
  38   1.0000      -0.858711       -23.3667 
  39   1.0000      -0.842216       -22.9179 
  40   1.0000      -0.841627       -22.9018 
  41   1.0000      -0.837860       -22.7993 
  42   1.0000      -0.836592       -22.7648 
  43   1.0000      -0.471464       -12.8292 
  44   1.0000      -0.471243       -12.8232 
  45   1.0000      -0.436624       -11.8812 
  46   1.0000      -0.414874       -11.2893 
  47   1.0000      -0.409769       -11.1504 
  48   1.0000      -0.403555       -10.9813 
  49   1.0000      -0.401379       -10.9221 
  50   1.0000      -0.397560       -10.8181 
  51   1.0000      -0.394770       -10.7422 
  52   1.0000      -0.388682       -10.5766 
  53   1.0000      -0.384771       -10.4701 
  54   1.0000      -0.383241       -10.4285 
  55   1.0000      -0.372547       -10.1375 
  56   1.0000      -0.367741       -10.0067 
  57   1.0000      -0.362369        -9.8606 
  58   1.0000      -0.356036        -9.6882 
  59   1.0000      -0.355454        -9.6724 
  60   1.0000      -0.342188        -9.3114 
  61   1.0000      -0.333130        -9.0649 
  62   1.0000      -0.329279        -8.9601 
  63   1.0000      -0.313442        -8.5292 
  64   1.0000      -0.309108        -8.4113 
  65   1.0000      -0.308007        -8.3813 
  66   1.0000      -0.305527        -8.3138 
  67   1.0000      -0.300988        -8.1903 
  68   1.0000      -0.276748        -7.5307 
  69   1.0000      -0.272882        -7.4255 
  70   1.0000      -0.269642        -7.3373 
  71   1.0000      -0.266691        -7.2570 
  72   1.0000      -0.261622        -7.1191 
  73   0.0000      -0.260791        -7.0965 
  74   0.0000      -0.237640        -6.4665 
  75   0.0000      -0.237505        -6.4628 
  76   0.0000      -0.235221        -6.4007 
  77   0.0000      -0.231292        -6.2938 
  78   0.0000      -0.227839        -6.1998 
  79   0.0000      -0.220632        -6.0037 
  80   0.0000      -0.212581        -5.7846 
  81   0.0000      -0.197420        -5.3721 
  82   0.0000      -0.051817        -1.4100 
  83   0.0000      -0.039879        -1.0852 
  84   0.0000       0.015899         0.4326 
  85   0.0000       0.053591         1.4583 
  86   0.0000       0.080546         2.1918 
  87   0.0000       0.099061         2.6956 
  88   0.0000       0.117016         3.1842 
  89   0.0000       0.135390         3.6841 
  90   0.0000       0.152225         4.1423 
  91   0.0000       0.168944         4.5972 
  92   0.0000       0.194592         5.2951 
  93   0.0000       0.197922         5.3857 
  94   0.0000       0.202235         5.5031 
  95   0.0000       0.236480         6.4350 
  96   0.0000       0.242319         6.5938 
  97   0.0000       0.350129         9.5275 
  98   0.0000       0.468069        12.7368 
  99   0.0000       0.532384        14.4869 
 100   0.0000       0.537047        14.6138 
 101   0.0000       0.639423        17.3996 
 102   0.0000       0.677040        18.4232 
 103   0.0000       0.738312        20.0905 
 104   0.0000       0.748749        20.3745 
 105   0.0000       0.771490        20.9933 
 106   0.0000       0.797613        21.7042 
 107   0.0000       0.810600        22.0576 
 108   0.0000       0.816633        22.2217 
 109   0.0000       0.835079        22.7237 
 110   0.0000       0.836074        22.7507 
 111   0.0000       0.845291        23.0015 
 112   0.0000       0.854393        23.2492 
 113   0.0000       0.863191        23.4886 
 114   0.0000       0.867910        23.6170 
 115   0.0000       0.875513        23.8239 
 116   0.0000       0.882784        24.0218 
 117   0.0000       0.933922        25.4133 
 118   0.0000       0.939212        25.5572 
 119   0.0000       0.948124        25.7998 
 120   0.0000       0.960177        26.1277 
 121   0.0000       0.969845        26.3908 
 122   0.0000       0.989254        26.9190 
 123   0.0000       1.002126        27.2692 
 124   0.0000       1.014037        27.5933 
 125   0.0000       1.056947        28.7610 
 126   0.0000       1.060837        28.8669 
 127   0.0000       1.082794        29.4643 
 128   0.0000       1.085457        29.5368 
 129   0.0000       1.098431        29.8898 
 130   0.0000       1.103483        30.0273 
 131   0.0000       1.136559        30.9274 
 132   0.0000       1.147417        31.2228 
 133   0.0000       1.181289        32.1445 
 134   0.0000       1.192677        32.4544 
 135   0.0000       1.205678        32.8082 
 136   0.0000       1.224662        33.3247 
 137   0.0000       1.232268        33.5317 
 138   0.0000       1.255150        34.1544 
 139   0.0000       1.285425        34.9782 
 140   0.0000       1.331360        36.2281 
 141   0.0000       1.349378        36.7184 
 142   0.0000       1.353772        36.8380 
 143   0.0000       1.429698        38.9041 
 144   0.0000       1.447409        39.3860 
 145   0.0000       1.457244        39.6536 
 146   0.0000       1.495441        40.6930 
 147   0.0000       1.509055        41.0635 
 148   0.0000       1.530499        41.6470 
 149   0.0000       1.577449        42.9246 
 150   0.0000       1.655918        45.0598 
 151   0.0000       1.676664        45.6243 
 152   0.0000       2.030121        55.2424 
 153   0.0000       2.034591        55.3640 
 154   0.0000       2.459832        66.9354 
 155   0.0000       2.461460        66.9797 
 156   0.0000       2.474945        67.3467 
 157   0.0000       2.475795        67.3698 
 158   0.0000       2.476857        67.3987 
 159   0.0000       2.477634        67.4199 
 160   0.0000       2.481097        67.5141 
 161   0.0000       2.490011        67.7567 
 162   0.0000       2.494420        67.8766 
 163   0.0000       2.494840        67.8880 
 164   0.0000       2.503090        68.1125 
 165   0.0000       2.523386        68.6648 
 166   0.0000       2.526390        68.7466 
 167   0.0000       2.547837        69.3302 
 168   0.0000       2.559976        69.6605 
 169   0.0000       2.560366        69.6711 
 170   0.0000       2.573874        70.0387 
 171   0.0000       2.575453        70.0817 
 172   0.0000       2.593582        70.5750 
 173   0.0000       2.606506        70.9266 
 174   0.0000       2.617982        71.2389 
 175   0.0000       2.619870        71.2903 
 176   0.0000       2.626979        71.4837 
 177   0.0000       2.634644        71.6923 
 178   0.0000       2.658157        72.3321 
 179   0.0000       2.675417        72.8018 
 180   0.0000       2.752765        74.9065 
 181   0.0000       2.779721        75.6401 
 182   0.0000       2.791403        75.9579 
 183   0.0000       2.793793        76.0230 
 184   0.0000       2.796147        76.0870 
 185   0.0000       2.806940        76.3807 
 186   0.0000       2.830760        77.0289 
 187   0.0000       2.833375        77.1001 
 188   0.0000       2.858942        77.7958 
 189   0.0000       2.891621        78.6850 
 190   0.0000       2.916079        79.3505 
 191   0.0000       2.918956        79.4288 
 192   0.0000       3.203386        87.1686 
 193   0.0000       3.216751        87.5322 
 194   0.0000       3.233623        87.9914 
 195   0.0000       3.247978        88.3820 
 196   0.0000       3.310153        90.0738 
 197   0.0000       3.404875        92.6514 
 198   0.0000       3.425969        93.2254 
 199   0.0000       3.528973        96.0282 
 200   0.0000       3.532944        96.1363 
 201   0.0000       4.620588       125.7326 
 202   0.0000       4.620683       125.7352 
 203   0.0000       4.633424       126.0819 
 204   0.0000       4.633966       126.0966 
 205   0.0000       4.644555       126.3848 
 206   0.0000       4.656086       126.6985 
 207   0.0000       4.665759       126.9617 
 208   0.0000       4.666974       126.9948 
 209   0.0000       4.674889       127.2102 
 210   0.0000       4.677777       127.2888 
 211   0.0000       4.684003       127.4582 
 212   0.0000       4.685637       127.5027 
 213   0.0000       4.720321       128.4465 
 214   0.0000       4.724397       128.5574 

                 SPIN DOWN ORBITALS
  NO   OCC          E(Eh)            E(eV) 
   0   1.0000    -275.643314     -7500.6359 
   1   1.0000    -275.642838     -7500.6230 
   2   1.0000    -233.752801     -6360.7371 
   3   1.0000     -32.441561      -882.7798 
   4   1.0000     -32.440778      -882.7584 
   5   1.0000     -28.237441      -768.3798 
   6   1.0000     -28.236519      -768.3548 
   7   1.0000     -28.231340      -768.2138 
   8   1.0000     -28.230979      -768.2040 
   9   1.0000     -28.217251      -767.8304 
  10   1.0000     -28.216394      -767.8071 
  11   1.0000     -26.929520      -732.7895 
  12   1.0000     -23.147341      -629.8712 
  13   1.0000     -23.146104      -629.8375 
  14   1.0000     -23.144281      -629.7879 
  15   1.0000     -18.704236      -508.9681 
  16   1.0000     -18.703333      -508.9436 
  17   1.0000     -18.693845      -508.6854 
  18   1.0000     -18.693799      -508.6841 
  19   1.0000     -18.693642      -508.6799 
  20   1.0000     -18.692018      -508.6357 
  21   1.0000     -18.685062      -508.4464 
  22   1.0000     -18.684955      -508.4435 
  23   1.0000      -3.667688       -99.8029 
  24   1.0000      -3.666639       -99.7743 
  25   1.0000      -3.065044       -83.4041 
  26   1.0000      -2.418887       -65.8213 
  27   1.0000      -2.417471       -65.7827 
  28   1.0000      -2.412306       -65.6422 
  29   1.0000      -2.411818       -65.6289 
  30   1.0000      -2.385792       -64.9207 
  31   1.0000      -2.384607       -64.8885 
  32   1.0000      -1.989202       -54.1289 
  33   1.0000      -1.977505       -53.8106 
  34   1.0000      -1.977418       -53.8083 
  35   1.0000      -0.917193       -24.9581 
  36   1.0000      -0.917028       -24.9536 
  37   1.0000      -0.872709       -23.7476 
  38   1.0000      -0.862893       -23.4805 
  39   1.0000      -0.842479       -22.9250 
  40   1.0000      -0.840427       -22.8692 
  41   1.0000      -0.839632       -22.8476 
  42   1.0000      -0.839077       -22.8324 
  43   1.0000      -0.474511       -12.9121 
  44   1.0000      -0.474302       -12.9064 
  45   1.0000      -0.432790       -11.7768 
  46   1.0000      -0.413910       -11.2631 
  47   1.0000      -0.410442       -11.1687 
  48   1.0000      -0.407054       -11.0765 
  49   1.0000      -0.404152       -10.9975 
  50   1.0000      -0.398610       -10.8467 
  51   1.0000      -0.397034       -10.8038 
  52   1.0000      -0.387781       -10.5520 
  53   1.0000      -0.384691       -10.4680 
  54   1.0000      -0.383743       -10.4422 
  55   1.0000      -0.371737       -10.1155 
  56   1.0000      -0.368475       -10.0267 
  57   1.0000      -0.356883        -9.7113 
  58   1.0000      -0.350389        -9.5346 
  59   1.0000      -0.346078        -9.4173 
  60   1.0000      -0.344776        -9.3818 
  61   1.0000      -0.334919        -9.1136 
  62   1.0000      -0.330517        -8.9938 
  63   1.0000      -0.312411        -8.5011 
  64   1.0000      -0.310403        -8.4465 
  65   1.0000      -0.296641        -8.0720 
  66   1.0000      -0.289755        -7.8846 
  67   1.0000      -0.289685        -7.8827 
  68   1.0000      -0.280770        -7.6401 
  69   1.0000      -0.272883        -7.4255 
  70   1.0000      -0.267704        -7.2846 
  71   1.0000      -0.266768        -7.2591 
  72   0.0000      -0.247489        -6.7345 
  73   0.0000      -0.244230        -6.6458 
  74   0.0000      -0.240665        -6.5488 
  75   0.0000      -0.235850        -6.4178 
  76   0.0000      -0.233545        -6.3551 
  77   0.0000      -0.217593        -5.9210 
  78   0.0000      -0.216907        -5.9023 
  79   0.0000      -0.202884        -5.5207 
  80   0.0000      -0.183684        -4.9983 
  81   0.0000      -0.167416        -4.5556 
  82   0.0000      -0.051908        -1.4125 
  83   0.0000      -0.040911        -1.1132 
  84   0.0000       0.017713         0.4820 
  85   0.0000       0.053095         1.4448 
  86   0.0000       0.080164         2.1814 
  87   0.0000       0.106350         2.8939 
  88   0.0000       0.116216         3.1624 
  89   0.0000       0.135261         3.6806 
  90   0.0000       0.157579         4.2879 
  91   0.0000       0.173487         4.7208 
  92   0.0000       0.192835         5.2473 
  93   0.0000       0.198578         5.4036 
  94   0.0000       0.201846         5.4925 
  95   0.0000       0.239635         6.5208 
  96   0.0000       0.245760         6.6875 
  97   0.0000       0.355527         9.6744 
  98   0.0000       0.473431        12.8827 
  99   0.0000       0.533959        14.5298 
 100   0.0000       0.536894        14.6096 
 101   0.0000       0.650298        17.6955 
 102   0.0000       0.690322        18.7846 
 103   0.0000       0.739063        20.1109 
 104   0.0000       0.747475        20.3398 
 105   0.0000       0.775673        21.1071 
 106   0.0000       0.798726        21.7344 
 107   0.0000       0.812079        22.0978 
 108   0.0000       0.818579        22.2747 
 109   0.0000       0.835400        22.7324 
 110   0.0000       0.840739        22.8777 
 111   0.0000       0.846371        23.0309 
 112   0.0000       0.854133        23.2422 
 113   0.0000       0.861761        23.4497 
 114   0.0000       0.867697        23.6112 
 115   0.0000       0.880970        23.9724 
 116   0.0000       0.881939        23.9988 
 117   0.0000       0.931751        25.3542 
 118   0.0000       0.939695        25.5704 
 119   0.0000       0.950010        25.8511 
 120   0.0000       0.963847        26.2276 
 121   0.0000       0.970159        26.3994 
 122   0.0000       0.994729        27.0680 
 123   0.0000       1.006906        27.3993 
 124   0.0000       1.016321        27.6555 
 125   0.0000       1.053220        28.6596 
 126   0.0000       1.060388        28.8546 
 127   0.0000       1.085783        29.5457 
 128   0.0000       1.086758        29.5722 
 129   0.0000       1.095637        29.8138 
 130   0.0000       1.103487        30.0274 
 131   0.0000       1.137770        30.9603 
 132   0.0000       1.147011        31.2117 
 133   0.0000       1.182743        32.1841 
 134   0.0000       1.191420        32.4202 
 135   0.0000       1.206762        32.8377 
 136   0.0000       1.223814        33.3017 
 137   0.0000       1.232655        33.5422 
 138   0.0000       1.253654        34.1137 
 139   0.0000       1.286171        34.9985 
 140   0.0000       1.330082        36.1934 
 141   0.0000       1.348644        36.6985 
 142   0.0000       1.352994        36.8168 
 143   0.0000       1.431432        38.9513 
 144   0.0000       1.448202        39.4076 
 145   0.0000       1.460014        39.7290 
 146   0.0000       1.495034        40.6819 
 147   0.0000       1.511392        41.1271 
 148   0.0000       1.530278        41.6410 
 149   0.0000       1.586213        43.1630 
 150   0.0000       1.655206        45.0404 
 151   0.0000       1.678389        45.6713 
 152   0.0000       2.028903        55.2093 
 153   0.0000       2.033403        55.3317 
 154   0.0000       2.457061        66.8600 
 155   0.0000       2.458051        66.8870 
 156   0.0000       2.470141        67.2159 
 157   0.0000       2.472052        67.2679 
 158   0.0000       2.474052        67.3224 
 159   0.0000       2.476175        67.3802 
 160   0.0000       2.479608        67.4736 
 161   0.0000       2.487375        67.6849 
 162   0.0000       2.491607        67.8001 
 163   0.0000       2.493353        67.8476 
 164   0.0000       2.502280        68.0905 
 165   0.0000       2.520364        68.5826 
 166   0.0000       2.527609        68.7797 
 167   0.0000       2.545821        69.2753 
 168   0.0000       2.557727        69.5993 
 169   0.0000       2.558764        69.6275 
 170   0.0000       2.575771        70.0903 
 171   0.0000       2.577088        70.1261 
 172   0.0000       2.590834        70.5002 
 173   0.0000       2.603015        70.8316 
 174   0.0000       2.614757        71.1512 
 175   0.0000       2.617232        71.2185 
 176   0.0000       2.626885        71.4812 
 177   0.0000       2.634169        71.6794 
 178   0.0000       2.657201        72.3061 
 179   0.0000       2.672930        72.7341 
 180   0.0000       2.750161        74.8357 
 181   0.0000       2.777938        75.5915 
 182   0.0000       2.790761        75.9405 
 183   0.0000       2.791013        75.9473 
 184   0.0000       2.794451        76.0409 
 185   0.0000       2.805751        76.3484 
 186   0.0000       2.830421        77.0197 
 187   0.0000       2.832751        77.0831 
 188   0.0000       2.857994        77.7700 
 189   0.0000       2.891151        78.6722 
 190   0.0000       2.912496        79.2530 
[...]
      8      -0.041835   0.051928   0.052716   0.012167  -0.006294  -0.142152
      9      -0.152716   0.033003   0.109068  -0.002097   0.014608   0.012616
     10       0.060054  -0.004856   0.080532   0.095773   0.160496   0.186798
     11       0.020432  -0.080981   0.171108  -0.056172  -0.085437  -0.133177
     12       0.039844   0.037438   0.006807  -0.016110  -0.005946  -0.031301
     13      -0.088928   0.009458  -0.091355   0.040049   0.077012   0.203993
     14       0.001112  -0.004782   0.112463   0.034648   0.065156   0.141787
     15       0.000501   0.006650   0.046446   0.056415   0.102812  -0.042259
     16       0.147677  -0.072953   0.017754  -0.006609  -0.002409  -0.023664
     17       0.009563   0.083705  -0.001712  -0.052348  -0.073077   0.040299
     18      -0.073974  -0.045693   0.052040  -0.039554  -0.024133   0.105884
     19       0.000322  -0.101924  -0.075026  -0.000484  -0.006860  -0.004884
     20      -0.058752  -0.034082   0.035704   0.015919  -0.094672   0.120229
     21      -0.056193  -0.024390   0.036230   0.032802   0.014704  -0.093692
     22       0.008226   0.042185   0.027914   0.001926   0.021133   0.044749
     23      -0.021542  -0.025746   0.001037  -0.015569  -0.002455   0.036982
     24       0.073928   0.054693  -0.015232   0.008195  -0.022481  -0.012774
     25       0.000285   0.021573  -0.002694  -0.012884  -0.018341  -0.011980
     26       0.066463   0.054089  -0.019457  -0.002037  -0.014873   0.042140
     27      -0.103908  -0.017346  -0.065462  -0.011802  -0.107892  -0.000770
     28       0.047976  -0.036374   0.053367   0.028427  -0.054165   0.044569
     29       0.057076  -0.076259   0.040228  -0.030962  -0.037867  -0.019596
     30      -0.004702  -0.041567   0.014441   0.004009   0.008765   0.030246
     31      -0.045419   0.008412   0.001107  -0.026167  -0.034336  -0.077616
     32      -0.044131   0.000687  -0.040221   0.025389   0.034872  -0.000288
     33       0.479068  -0.252956   0.262796  -0.570524   0.483096  -0.612878
     34      -0.417474   0.280398  -0.371040  -0.334191   0.336384  -0.409654
     35      -0.671620   0.348315  -0.533846  -0.154760   0.102915  -0.213422
     36      -0.070132   0.005669   0.090921  -0.230941   0.204807   0.064254
     37      -0.033129   0.801573   0.581068  -0.011526   0.046328   0.035124
     38      -0.036592  -0.018740   0.052588  -0.661079   0.702536  -0.027583
                 30         31         32         33         34         35    
      0      -0.222213   0.009522  -0.073206   0.285474   0.081951   0.156894
      1       0.037835  -0.001101   0.007928  -0.048471  -0.006755  -0.015212
      2       0.252267  -0.022987   0.120064  -0.269420  -0.076998  -0.154220
      3       0.032503  -0.004048   0.033484  -0.014197  -0.000334  -0.028946
      4       0.043424   0.017188   0.157480   0.268124  -0.303714  -0.315140
      5      -0.022817  -0.026163  -0.114132  -0.250971   0.254296   0.255928
      6       0.040294   0.004432   0.019295  -0.032860   0.005260  -0.013772
      7      -0.112829  -0.007986  -0.004203   0.315767  -0.420860   0.279944
      8      -0.053339  -0.016496   0.020340   0.188200  -0.257939   0.163030
      9       0.060410   0.009783  -0.049175   0.033530  -0.017963   0.035166
     10       0.282137   0.009813  -0.120932   0.325510  -0.127623   0.203858
     11      -0.129151  -0.002047   0.051040  -0.167302   0.073609  -0.115547
     12       0.037840   0.006117  -0.026379   0.027759   0.011763   0.026107
     13      -0.142921   0.018815  -0.000261  -0.357368  -0.378541  -0.297193
     14      -0.066366   0.001307  -0.009267  -0.213096  -0.256913  -0.193208
     15      -0.016977   0.027192   0.147220   0.346720   0.305766  -0.350660
     16      -0.003435   0.006277   0.006448   0.015243   0.003250  -0.013857
     17       0.051720  -0.007794  -0.135916  -0.194222  -0.197749   0.259443
     18       0.286127   0.024478   0.190861  -0.086066  -0.014689   0.149873
     19       0.000952   0.003436   0.007943   0.016590  -0.024317   0.001921
     20       0.304187   0.096746   0.160374  -0.101583   0.018761   0.149515
     21      -0.038913  -0.004512  -0.055472  -0.034126  -0.005256  -0.105508
     22       0.007510  -0.003175  -0.036876  -0.120797   0.157209   0.009735
     23      -0.103491  -0.004649  -0.051319   0.077011   0.006510  -0.130904
     24      -0.029096  -0.005573   0.004703  -0.052015  -0.028667   0.003618
     25      -0.017364  -0.004940   0.004058  -0.041550   0.096546   0.007418
     26      -0.033237   0.009221  -0.006227   0.070230   0.036711  -0.013800
     27       0.352129  -0.087714  -0.208760   0.128996   0.008775  -0.199441
     28       0.055953  -0.057211  -0.020765   0.023413   0.005652  -0.032959
     29       0.198442  -0.020072  -0.139890   0.042273  -0.031082  -0.115170
     30      -0.100634   0.006017   0.046263  -0.102571  -0.065246   0.164778
     31      -0.036958   0.004682   0.027800   0.009135   0.093620   0.035762
     32      -0.018365   0.004572   0.063955   0.119438   0.092799   0.074226
     33       0.433903   0.572078  -0.541790  -0.050404  -0.266056  -0.253733
     34       0.113224   0.376897  -0.204446  -0.062338  -0.101962  -0.054539
     35       0.215913   0.132976  -0.180743   0.035617  -0.020337  -0.104367
     36       0.261351  -0.193827   0.294626  -0.064421  -0.089490   0.159180
     37      -0.002495  -0.024810  -0.020074  -0.014449   0.061962  -0.015577
     38       0.228981  -0.670668   0.533518  -0.014057  -0.262791   0.205666
                 36         37         38    
      0      -0.181249  -0.000034  -0.000020
      1       0.025835   0.000011  -0.000021
      2       0.213561  -0.000090  -0.000195
      3       0.044951   0.000051  -0.000045
      4       0.315538  -0.000185  -0.000227
      5      -0.237022  -0.000023  -0.000003
      6       0.032340   0.000042  -0.000045
      7      -0.334937   0.000202   0.000235
      8      -0.172092  -0.000070  -0.000103
      9       0.054407   0.000005   0.000166
     10       0.226067   0.000040   0.000136
     11      -0.108113   0.000000   0.000021
     12       0.048582   0.000005   0.000255
     13      -0.293400  -0.000009  -0.000096
     14      -0.183426   0.000069  -0.000203
     15      -0.276647   0.000030  -0.000125
     16      -0.006686  -0.000060   0.000163
     17       0.230030   0.000029   0.000208
     18      -0.162314  -0.052636  -0.028118
     19      -0.001700   0.002758   0.001480
     20      -0.168887   0.014952   0.007902
     21       0.128212  -0.000251  -0.000063
     22      -0.001639   0.000017   0.000012
     23       0.142288   0.000016   0.000065
     24      -0.112455   0.000097  -0.000074
     25      -0.000664  -0.000009  -0.000038
     26      -0.081060   0.000098   0.000040
     27      -0.186939  -0.008467   0.016044
     28      -0.034318   0.019936  -0.037400
     29      -0.104936  -0.019553   0.036770
     30       0.153024  -0.000104   0.000058
     31       0.031039   0.000070  -0.000140
     32       0.082327  -0.000119   0.000120
     33      -0.201443   0.137298  -0.258117
     34      -0.041936  -0.320187   0.600573
     35      -0.097609   0.314596  -0.590347
     36      -0.161332   0.846422   0.451137
     37       0.003693  -0.044630  -0.023844
     38      -0.189612  -0.239549  -0.127361


-----------
IR SPECTRUM
-----------

 Mode   freq       eps      Int      T**2         TX        TY        TZ
       cm**-1   L/(mol*cm) km/mol    a.u.
----------------------------------------------------------------------------
  6:     46.32   0.000222    1.12  0.001496  ( 0.015087 -0.009094 -0.034430)
  7:     47.14   0.000043    0.22  0.000284  ( 0.004244 -0.003120 -0.015997)
  8:     54.47   0.000443    2.24  0.002538  ( 0.007847  0.049755 -0.001116)
  9:     88.97   0.001124    5.68  0.003943  ( 0.003134 -0.062688  0.001935)
 10:     97.09   0.001199    6.06  0.003853  ( 0.034723 -0.017369 -0.048433)
 11:    144.27   0.000830    4.19  0.001794  ( 0.006101  0.033770  0.024836)
 12:    165.60   0.000108    0.55  0.000204  ( 0.004874  0.005864 -0.012089)
 13:    197.01   0.001079    5.45  0.001709  (-0.029347 -0.003046 -0.028951)
 14:    245.52   0.004023   20.33  0.005114  ( 0.043979  0.034746  0.044408)
 15:    263.52   0.002013   10.17  0.002383  (-0.022789 -0.018918  0.038809)
 16:    265.81   0.000336    1.70  0.000395  (-0.002541 -0.002991  0.019475)
 17:    285.36   0.000384    1.94  0.000420  (-0.012279 -0.005262  0.015530)
 18:    314.21   0.008827   44.61  0.008767  (-0.046804  0.079981  0.013402)
 19:    328.80   0.005505   27.82  0.005225  (-0.038275 -0.030633  0.053120)
 20:    370.20   0.000568    2.87  0.000479  (-0.016801  0.009842  0.009998)
 21:    374.24   0.002140   10.82  0.001785  (-0.018012 -0.023345  0.030252)
 22:    400.01   0.002193   11.08  0.001711  ( 0.019696  0.024114  0.027232)
 23:    430.73   0.003516   17.77  0.002547  ( 0.017920  0.046347 -0.008833)
 24:    432.53   0.007021   35.48  0.005065  ( 0.025925 -0.032453 -0.057792)
 25:    446.09   0.018327   92.62  0.012820  (-0.025624  0.105561  0.031947)
 26:    459.54   0.004451   22.49  0.003023  ( 0.031816  0.017063 -0.041463)
 27:    696.53   0.024129  121.94  0.010810  (-0.064431 -0.037970 -0.072231)
 28:    714.65   0.044007  222.39  0.019216  ( 0.100203  0.011209  0.095132)
 29:    716.04   0.009388   47.44  0.004092  (-0.059213 -0.021363 -0.011358)
 30:    724.90   0.045072  227.78  0.019403  (-0.108860 -0.007860 -0.086551)
 31:    727.78   0.005638   28.49  0.002418  ( 0.028245  0.023664 -0.032555)
 32:    744.25   0.000641    3.24  0.000269  (-0.008142 -0.007821  0.011882)
 33:    759.82   0.007911   39.98  0.003249  (-0.030516 -0.024631  0.041369)
 34:    765.69   0.008544   43.18  0.003482  (-0.015617  0.053096  0.020467)
 35:    835.38   0.000686    3.47  0.000256  ( 0.010084  0.007732 -0.009745)
 36:    842.26   0.005643   28.52  0.002091  ( 0.035543  0.004089  0.028474)
 37:   3630.09   0.124916  631.27  0.010738  ( 0.091266 -0.009484  0.048157)
 38:   3632.71   0.018190   91.93  0.001563  (-0.014458  0.015581 -0.033329)

* The epsilon (eps) is given for a Dirac delta lineshape.
** The dipole moment derivative (T) already includes vibrational overlap.

--------------
RAMAN SPECTRUM  
--------------

 Mode    freq (cm**-1)   Activity   Depolarization
-------------------------------------------------------------------
   6:        46.32      0.782764      0.442692
   7:        47.14      0.962927      0.739487
   8:        54.47      0.546060      0.336148
   9:        88.97      6.043765      0.721912
  10:        97.09      6.561162      0.745488
  11:       144.27      0.006076      0.517883
  12:       165.60      0.292767      0.057338
  13:       197.01      6.044755      0.740850
  14:       245.52      0.754531      0.666563
  15:       263.52     40.647685      0.315027
  16:       265.81      0.942732      0.674266
  17:       285.36      6.237003      0.467171
  18:       314.21      1.144218      0.749369
  19:       328.80      4.673816      0.605413
  20:       370.20      1.534348      0.749802
  21:       374.24      0.939011      0.745228
  22:       400.01      1.595224      0.748706
  23:       430.73      5.852391      0.722193
  24:       432.53      5.858670      0.746192
  25:       446.09      3.008562      0.747517
  26:       459.54      6.105956      0.542617
  27:       696.53      3.930200      0.749357
  28:       714.65      2.532766      0.585270
  29:       716.04     13.503390      0.447726
  30:       724.90      2.262652      0.747478
  31:       727.78      6.287166      0.749098
  32:       744.25    105.137088      0.217363
  33:       759.82      8.752808      0.141041
  34:       765.69      0.613277      0.735493
  35:       835.38     15.424400      0.656085
  36:       842.26      0.458574      0.740158
  37:      3630.09    178.046810      0.497791
  38:      3632.71    913.041854      0.289454

The first frequency considered to be a vibration is 6
The total number of vibrations considered is 33


--------------------------
THERMOCHEMISTRY AT 298.15K
--------------------------

Temperature         ... 298.15 K
Pressure            ... 1.00 atm
Total Mass          ... 302.81 AMU

Throughout the following assumptions are being made:
  (1) The electronic state is orbitally nondegenerate
      but the spin degeneracy is treated
  (2) There are no thermally accessible electronically excited states
  (3) Hindered rotations indicated by low frequency modes are not
      treated as such but are treated as vibrations and this may
      cause some error
  (4) All equations used are the standard statistical mechanics
      equations for an ideal gas
  (5) All vibrations are strictly harmonic

freq.      46.32  E(vib)   ...       0.53 
freq.      47.14  E(vib)   ...       0.53 
freq.      54.47  E(vib)   ...       0.52 
freq.      88.97  E(vib)   ...       0.47 
freq.      97.09  E(vib)   ...       0.46 
freq.     144.27  E(vib)   ...       0.41 
freq.     165.60  E(vib)   ...       0.39 
freq.     197.01  E(vib)   ...       0.35 
freq.     245.52  E(vib)   ...       0.31 
freq.     263.52  E(vib)   ...       0.29 
freq.     265.81  E(vib)   ...       0.29 
freq.     285.36  E(vib)   ...       0.28 
freq.     314.21  E(vib)   ...       0.25 
freq.     328.80  E(vib)   ...       0.24 
freq.     370.20  E(vib)   ...       0.21 
freq.     374.24  E(vib)   ...       0.21 
freq.     400.01  E(vib)   ...       0.19 
freq.     430.73  E(vib)   ...       0.18 
freq.     432.53  E(vib)   ...       0.18 
freq.     446.09  E(vib)   ...       0.17 
freq.     459.54  E(vib)   ...       0.16 
freq.     696.53  E(vib)   ...       0.07 
freq.     714.65  E(vib)   ...       0.07 
freq.     716.04  E(vib)   ...       0.07 
freq.     724.90  E(vib)   ...       0.06 
freq.     727.78  E(vib)   ...       0.06 
freq.     744.25  E(vib)   ...       0.06 
freq.     759.82  E(vib)   ...       0.06 
freq.     765.69  E(vib)   ...       0.06 
freq.     835.38  E(vib)   ...       0.04 
freq.     842.26  E(vib)   ...       0.04 
freq.    3630.09  E(vib)   ...       0.00 
freq.    3632.71  E(vib)   ...       0.00 

------------
INNER ENERGY
------------

The inner energy is: U= E(el) + E(ZPE) + E(vib) + E(rot) + E(trans)
    E(el)   - is the total energy from the electronic structure calculation
              = E(kin-el) + E(nuc-el) + E(el-el) + E(nuc-nuc)
    E(ZPE)  - the the zero temperature vibrational energy from the frequency calculation
    E(vib)  - the the finite temperature correction to E(ZPE) due to population
              of excited vibrational states
    E(rot)  - is the rotational thermal energy
    E(trans)- is the translational thermal energy

Summary of contributions to the inner energy U:
Electronic energy                ...  -4507.01830854 Eh
Zero point energy                ...      0.04612723 Eh      28.95 kcal/mol
Thermal vibrational correction   ...      0.01150393 Eh       7.22 kcal/mol
Thermal rotational correction    ...      0.00141627 Eh       0.89 kcal/mol
Thermal translational correction ...      0.00141627 Eh       0.89 kcal/mol
-----------------------------------------------------------------------
Total thermal energy                  -4506.95784484 Eh


Summary of corrections to the electronic energy:
(perhaps to be used in another calculation)
Total thermal correction                  0.01433647 Eh       9.00 kcal/mol
Non-thermal (ZPE) correction              0.04612723 Eh      28.95 kcal/mol
-----------------------------------------------------------------------
Total correction                          0.06046370 Eh      37.94 kcal/mol


--------
ENTHALPY
--------

The enthalpy is H = U + kB*T
                kB is Boltzmann's constant
Total free energy                 ...  -4506.95784484 Eh 
Thermal Enthalpy correction       ...      0.00094421 Eh       0.59 kcal/mol
-----------------------------------------------------------------------
Total Enthalpy                    ...  -4506.95690063 Eh


Note: Only C1 symmetry has been detected, increase convergence thresholds 
      if your molecule has a higher symmetry. Symmetry factor of 1.0 is   
      used for the rotational entropy correction. 
 

Note: Rotational entropy computed according to Herzberg 
Infrared and Raman Spectra, Chapter V,1, Van Nostrand Reinhold, 1945 
Point Group:  C1, Symmetry Number:   1  
Rotational constants in cm-1:     0.088988     0.012806     0.012803 

Vibrational entropy computed according to the QRRHO of S. Grimme
Chem.Eur.J. 2012 18 9955


-------
ENTROPY
-------

The entropy contributions are T*S = T*(S(el)+S(vib)+S(rot)+S(trans))
     S(el)   - electronic entropy
     S(vib)  - vibrational entropy
     S(rot)  - rotational entropy
     S(trans)- translational entropy
The entropies will be listed as multiplied by the temperature to get
units of energy

Electronic entropy                ...      0.00065446 Eh      0.41 kcal/mol
Vibrational entropy               ...      0.02031098 Eh     12.75 kcal/mol
Rotational entropy                ...      0.01476762 Eh      9.27 kcal/mol
Translational entropy             ...      0.02044037 Eh     12.83 kcal/mol
-----------------------------------------------------------------------
Final entropy term                ...      0.05617343 Eh     35.25 kcal/mol

In case the symmetry of your molecule has not been determined correctly
or in case you have a reason to use a different symmetry number we print 
out the resulting rotational entropy values for sn=1,12 :
 --------------------------------------------------------
|  sn= 1 | S(rot)=       0.01476762 Eh      9.27 kcal/mol|
|  sn= 2 | S(rot)=       0.01411317 Eh      8.86 kcal/mol|
|  sn= 3 | S(rot)=       0.01373034 Eh      8.62 kcal/mol|
|  sn= 4 | S(rot)=       0.01345871 Eh      8.45 kcal/mol|
|  sn= 5 | S(rot)=       0.01324802 Eh      8.31 kcal/mol|
|  sn= 6 | S(rot)=       0.01307588 Eh      8.21 kcal/mol|
|  sn= 7 | S(rot)=       0.01293033 Eh      8.11 kcal/mol|
|  sn= 8 | S(rot)=       0.01280425 Eh      8.03 kcal/mol|
|  sn= 9 | S(rot)=       0.01269305 Eh      7.96 kcal/mol|
|  sn=10 | S(rot)=       0.01259357 Eh      7.90 kcal/mol|
|  sn=11 | S(rot)=       0.01250358 Eh      7.85 kcal/mol|
|  sn=12 | S(rot)=       0.01242142 Eh      7.79 kcal/mol|
 --------------------------------------------------------


-------------------
GIBBS FREE ENERGY
-------------------

The Gibbs free energy is G = H - T*S

Total enthalpy                    ...  -4506.95690063 Eh 
Total entropy correction          ...     -0.05617343 Eh    -35.25 kcal/mol
-----------------------------------------------------------------------
Final Gibbs free energy         ...  -4507.01307406 Eh

For completeness - the Gibbs free energy minus the electronic energy
G-E(el)                           ...      0.00523448 Eh      3.28 kcal/mol



Timings for individual modules:

Sum of individual times         ...     2004.066 sec (=  33.401 min)
GTO integral calculation        ...       49.648 sec (=   0.827 min)   2.5 %
SCF iterations                  ...      527.363 sec (=   8.789 min)  26.3 %
Solution of CP-SCF eqns.        ...        8.570 sec (=   0.143 min)   0.4 %
SCF Gradient evaluation         ...       86.925 sec (=   1.449 min)   4.3 %
Geometry relaxation             ...        3.093 sec (=   0.052 min)   0.2 %
Numerical frequency calculation ...     1328.467 sec (=  22.141 min)  66.3 %
                             ****ORCA TERMINATED NORMALLY****
TOTAL RUN TIME: 0 days 0 hours 33 minutes 22 seconds 282 msec
