
                                 *****************
                                 * O   R   C   A *
                                 *****************

           --- An Ab Initio, DFT and Semiempirical electronic structure package ---

                  #######################################################
                  #                        -***-                        #
                  #          Department of theory and spectroscopy      #
                  #               Directorship: Frank Neese             #
                  #        Max Planck Institute fuer Kohlenforschung    #
                  #                Kaiser Wilhelm Platz 1               #
                  #                 D-45470 Muelheim/Ruhr               #
                  #                      Germany                        #
                  #                                                     #
                  #                  All rights reserved                #
                  #                        -***-                        #
                  #######################################################


                         Program Version 4.2.1 -  RELEASE  -


 With contributions from (in alphabetic order):
   Daniel Aravena         : Magnetic Suceptibility
   Michael Atanasov       : Ab Initio Ligand Field Theory (pilot matlab implementation)
   Alexander A. Auer      : GIAO ZORA, VPT2
   Ute Becker             : Parallelization
   Giovanni Bistoni       : ED, misc. LED, open-shell LED, HFLD
   Martin Brehm           : Molecular dynamics
   Dmytro Bykov           : SCF Hessian
   Vijay G. Chilkuri      : MRCI spin determinant printing, contributions to CSF-ICE
   Dipayan Datta          : RHF DLPNO-CCSD density
   Achintya Kumar Dutta   : EOM-CC, STEOM-CC
   Dmitry Ganyushin       : Spin-Orbit,Spin-Spin,Magnetic field MRCI
   Miquel Garcia          : C-PCM Hessian, Gaussian charge scheme
   Yang Guo               : DLPNO-NEVPT2, CIM, IAO-localization
   Andreas Hansen         : Spin unrestricted coupled pair/coupled cluster methods
   Benjamin Helmich-Paris : CASSCF linear response (MC-RPA)
   Lee Huntington         : MR-EOM, pCC
   Robert Izsak           : Overlap fitted RIJCOSX, COSX-SCS-MP3, EOM
   Christian Kollmar      : KDIIS, OOCD, Brueckner-CCSD(T), CCSD density
   Simone Kossmann        : Meta GGA functionals, TD-DFT gradient, OOMP2, MP2 Hessian
   Martin Krupicka        : AUTO-CI
   Lucas Lang             : DCDCAS
   Dagmar Lenk            : GEPOL surface, SMD
   Dimitrios Liakos       : Extrapolation schemes; Compound Job, initial MDCI parallelization
   Dimitrios Manganas     : Further ROCIS development; embedding schemes
   Dimitrios Pantazis     : SARC Basis sets
   Taras Petrenko         : DFT Hessian,TD-DFT gradient, ASA, ECA, R-Raman, ABS, FL, XAS/XES, NRVS
   Peter Pinski           : DLPNO-MP2, DLPNO-MP2 Gradient
   Christoph Reimann      : Effective Core Potentials
   Marius Retegan         : Local ZFS, SOC
   Christoph Riplinger    : Optimizer, TS searches, QM/MM, DLPNO-CCSD(T), (RO)-DLPNO pert. Triples
   Tobias Risthaus        : Range-separated hybrids, TD-DFT gradient, RPA, STAB
   Michael Roemelt        : Original ROCIS implementation
   Masaaki Saitow         : Open-shell DLPNO-CCSD energy and density
   Barbara Sandhoefer     : DKH picture change effects
   Avijit Sen             : IP-ROCIS
   Kantharuban Sivalingam : CASSCF convergence, NEVPT2, FIC-MRCI
   Bernardo de Souza      : ESD, SOC TD-DFT
   Georgi Stoychev        : AutoAux, RI-MP2 NMR
   Willem Van den Heuvel  : Paramagnetic NMR
   Boris Wezisla          : Elementary symmetry handling
   Frank Wennmohs         : Technical directorship


 We gratefully acknowledge several colleagues who have allowed us to
 interface, adapt or use parts of their codes:
   Stefan Grimme, W. Hujo, H. Kruse,             : VdW corrections, initial TS optimization,
                  C. Bannwarth                     DFT functionals, gCP, sTDA/sTD-DF
   Ed Valeev, F. Pavosevic, A. Kumar             : LibInt (2-el integral package), F12 methods
   Garnet Chan, S. Sharma, J. Yang, R. Olivares  : DMRG
   Ulf Ekstrom                                   : XCFun DFT Library
   Mihaly Kallay                                 : mrcc  (arbitrary order and MRCC methods)
   Andreas Klamt, Michael Diedenhofen            : otool_cosmo (COSMO solvation model)
   Jiri Pittner, Ondrej Demel                    : Mk-CCSD
   Frank Weinhold                                : gennbo (NPA and NBO analysis)
   Christopher J. Cramer and Donald G. Truhlar   : smd solvation model
   Lars Goerigk                                  : TD-DFT with DH, B97 family of functionals
   V. Asgeirsson, H. Jonsson                     : NEB implementation
   FAccTs GmbH                                   : IRC, NEB, NEB-TS, Multilevel, MM, QM/MM, CI optimization
   S Lehtola, MJT Oliveira, MAL Marques          : LibXC Library


 Your calculation uses the libint2 library for the computation of 2-el integrals
 For citations please refer to: http://libint.valeyev.net

 Your ORCA version has been built with support for libXC version: 4.2.3
 For citations please refer to: https://tddft.org/programs/libxc/

 This ORCA versions uses:
   CBLAS   interface :  Fast vector & matrix operations
   LAPACKE interface :  Fast linear algebra routines
   SCALAPACK package :  Parallel linear algebra routines


SCAN-COORDS
----- Orbital basis set information -----
Your calculation utilizes the basis: 6-31G**
   H-He, Li-Ne : W. J. Hehre, R. Ditchfield and J.A. Pople, J. Chem. Phys. 56, 2257 (1972).
                 Note: He and Ne are unpublished basis sets taken from the Gaussian program.
                 Note: Li and B from J. D. Dill and J. A. Pople, J. Chem. Phys. 62, 2921 (1975).
   Na - Ar     : M. M. Francl, W. J. Pietro, W. J. Hehre, J. S. Binkley, M. S. Gordon, 
                 D. J. DeFrees and J. A. Pople, J. Chem. Phys. 77, 3654 (1982).
   K - Zn      : V. A. Rassolov, J. A. Pople, M. A. Ratner, and T. L. Windus, J. Chem. Phys. 109, 1223 (1998).

================================================================================
                                        WARNINGS
                       Please study these warnings very carefully!
================================================================================


WARNING: Geometry Optimization
  ===> : Switching off AutoStart
         For restart on a previous wavefunction, please use MOREAD

INFO   : the flag for use of LIBINT has been found!

================================================================================
                                       INPUT FILE
================================================================================
NAME = actividad2_Q2002B.inp
|  1> #end
|  2> %method
|  3> 	method HF
|  4> 	runtyp OPT
|  5> end
|  6> %basis
|  7> 	basis "6-31G**"
|  8> end
|  9> ! NumFreq
| 10> %elprop
| 11> 	Polar 1
| 12> end
| 13> %output
| 14> 	XYZFile true
| 15> 	Print [ P_AtPopMO_L ] 1
| 16> 	Print [ P_OrbPopMO_L ] 1
| 17> end
| 18> %coords
| 19> 	CTyp xyz
| 20> 	Charge 0
| 21> 	Mult 1
| 22> 	Units Angs
| 23> 	coords
| 24> 	N       -6.4382077600      2.3423568560      0.0380982609                 
| 25> 	H       -5.4208800106      2.3479326254     -0.0199892628                 
| 26> 	H       -6.7498062077      1.5827316221     -0.5654221700                 
| 27> 	H       -6.7498091349      3.2028874120     -0.4099561403
| 28> 	end
| 29> end
| 30> 
| 31> 
| 32>                          ****END OF INPUT****
================================================================================

                       *****************************
                       * Geometry Optimization Run *
                       *****************************

Geometry optimization settings:
Update method            Update   .... BFGS
Choice of coordinates    CoordSys .... Z-matrix Internals
Initial Hessian          InHess   .... Almoef's Model

Convergence Tolerances:
Energy Change            TolE     ....  5.0000e-06 Eh
Max. Gradient            TolMAXG  ....  3.0000e-04 Eh/bohr
RMS Gradient             TolRMSG  ....  1.0000e-04 Eh/bohr
Max. Displacement        TolMAXD  ....  4.0000e-03 bohr
RMS Displacement         TolRMSD  ....  2.0000e-03 bohr
Strict Convergence                ....  False
------------------------------------------------------------------------------
                        ORCA OPTIMIZATION COORDINATE SETUP
------------------------------------------------------------------------------

The optimization will be done in new redundant internal coordinates
Making redundant internal coordinates   ...  (new redundants) done
Evaluating the initial hessian          ...  (Almloef) done
Evaluating the coordinates              ...  done
Calculating the B-matrix                .... done
Calculating the G-matrix                .... done
Diagonalizing the G-matrix              .... done
The first mode is                       ....    1
The number of degrees of freedom        ....    6

    -----------------------------------------------------------------
                    Redundant Internal Coordinates


    -----------------------------------------------------------------
         Definition                    Initial Value    Approx d2E/dq
    -----------------------------------------------------------------
      1. B(H   1,N   0)                  1.0190         0.418635   
      2. B(H   2,N   0)                  1.0190         0.418635   
      3. B(H   3,N   0)                  1.0190         0.418635   
      4. A(H   1,N   0,H   3)          105.9980         0.300074   
      5. A(H   2,N   0,H   3)          105.9980         0.300074   
      6. A(H   1,N   0,H   2)          105.9980         0.300074   
      7. I(H   1,H   3,H   2,N   0)    -62.7455         0.003529   
    -----------------------------------------------------------------

Number of atoms                         .... 4
Number of degrees of freedom            .... 7

         *************************************************************
         *                GEOMETRY OPTIMIZATION CYCLE   1            *
         *************************************************************
---------------------------------
CARTESIAN COORDINATES (ANGSTROEM)
---------------------------------
  N     -6.438208    2.342357    0.038098
  H     -5.420880    2.347933   -0.019989
  H     -6.749806    1.582732   -0.565422
  H     -6.749809    3.202887   -0.409956

----------------------------
CARTESIAN COORDINATES (A.U.)
----------------------------
  NO LB      ZA    FRAG     MASS         X           Y           Z
   0 N     7.0000    0    14.007  -12.166449    4.426413    0.071995
   1 H     1.0000    0     1.008  -10.243979    4.436950   -0.037774
   2 H     1.0000    0     1.008  -12.755285    2.990929   -1.068493
   3 H     1.0000    0     1.008  -12.755291    6.052580   -0.774705

--------------------------------
INTERNAL COORDINATES (ANGSTROEM)
--------------------------------
 N      0   0   0     0.000000000000     0.00000000     0.00000000
 H      1   0   0     1.018999999663     0.00000000     0.00000000
 H      1   2   0     1.018999999559   105.99799982     0.00000000
 H      1   2   3     1.019000000532   105.99799978   247.63781939

---------------------------
INTERNAL COORDINATES (A.U.)
---------------------------
 N      0   0   0     0.000000000000     0.00000000     0.00000000
 H      1   0   0     1.925630929829     0.00000000     0.00000000
 H      1   2   0     1.925630929632   105.99799982     0.00000000
 H      1   2   3     1.925630931471   105.99799978   247.63781939

---------------------
BASIS SET INFORMATION
---------------------
There are 2 groups of distinct atoms

 Group   1 Type N   : 10s4p1d contracted to 3s2p1d pattern {631/31/1}
 Group   2 Type H   : 4s1p contracted to 2s1p pattern {31/1}

Atom   0N    basis set group =>   1
Atom   1H    basis set group =>   2
Atom   2H    basis set group =>   2
Atom   3H    basis set group =>   2
------------------------------------------------------------------------------
                           ORCA GTO INTEGRAL CALCULATION
------------------------------------------------------------------------------

                         BASIS SET STATISTICS AND STARTUP INFO

 # of primitive gaussian shells          ...   30
 # of primitive gaussian functions       ...   48
 # of contracted shells                  ...   15
 # of contracted basis functions         ...   29
 Highest angular momentum                ...    2
 Maximum contraction depth               ...    6
 Integral package used                   ... LIBINT
 Integral threshhold            Thresh   ...  2.500e-11
 Primitive cut-off              TCut     ...  2.500e-12


------------------------------ INTEGRAL EVALUATION ----------------------------


 * One electron integrals 
 Pre-screening matrix                    ... done
 Shell pair data                         ... done (   0.000 sec)

-------------------------------------------------------------------------------
                                 ORCA SCF
-------------------------------------------------------------------------------

------------
SCF SETTINGS
------------
Hamiltonian:
 Ab initio Hamiltonian  Method          .... Hartree-Fock(GTOs)


General Settings:
 Integral files         IntName         .... actividad2_Q2002B
 Hartree-Fock type      HFTyp           .... RHF
 Total Charge           Charge          ....    0
 Multiplicity           Mult            ....    1
 Number of Electrons    NEL             ....   10
 Basis Dimension        Dim             ....   29
 Nuclear Repulsion      ENuc            ....     11.8808998300 Eh

Convergence Acceleration:
 DIIS                   CNVDIIS         .... on
   Start iteration      DIISMaxIt       ....    12
   Startup error        DIISStart       ....  0.200000
   # of expansion vecs  DIISMaxEq       ....     5
   Bias factor          DIISBfac        ....   1.050
   Max. coefficient     DIISMaxC        ....  10.000
 Newton-Raphson         CNVNR           .... off
 SOSCF                  CNVSOSCF        .... on
   Start iteration      SOSCFMaxIt      ....   150
   Startup grad/error   SOSCFStart      ....  0.003300
 Level Shifting         CNVShift        .... on
   Level shift para.    LevelShift      ....    0.2500
   Turn off err/grad.   ShiftErr        ....    0.0010
 Zerner damping         CNVZerner       .... off
 Static damping         CNVDamp         .... on
   Fraction old density DampFac         ....    0.7000
   Max. Damping (<1)    DampMax         ....    0.9800
   Min. Damping (>=0)   DampMin         ....    0.0000
   Turn off err/grad.   DampErr         ....    0.1000
 Fernandez-Rico         CNVRico         .... off

SCF Procedure:
 Maximum # iterations   MaxIter         ....   125
 SCF integral mode      SCFMode         .... Direct
   Integral package                     .... LIBINT
 Reset frequency        DirectResetFreq ....    20
 Integral Threshold     Thresh          ....  2.500e-11 Eh
 Primitive CutOff       TCut            ....  2.500e-12 Eh

Convergence Tolerance:
 Convergence Check Mode ConvCheckMode   .... Total+1el-Energy
 Convergence forced     ConvForced      .... 0
 Energy Change          TolE            ....  1.000e-08 Eh
 1-El. energy change                    ....  1.000e-05 Eh
 Orbital Gradient       TolG            ....  1.000e-05
 Orbital Rotation angle TolX            ....  1.000e-05
 DIIS Error             TolErr          ....  5.000e-07


Diagonalization of the overlap matrix:
Smallest eigenvalue                        ... 3.306e-02
Time for diagonalization                   ...    0.023 sec
Threshold for overlap eigenvalues          ... 1.000e-08
Number of eigenvalues below threshold      ... 0
Time for construction of square roots      ...    0.000 sec
Total time needed                          ...    0.024 sec

-------------------
DFT GRID GENERATION
-------------------

General Integration Accuracy     IntAcc      ...  4.340
Radial Grid Type                 RadialGrid  ... Gauss-Chebyshev
Angular Grid (max. acc.)         AngularGrid ... Lebedev-110
Angular grid pruning method      GridPruning ... 3 (G Style)
Weight generation scheme         WeightScheme... Becke
Basis function cutoff            BFCut       ...    1.0000e-11
Integration weight cutoff        WCut        ...    1.0000e-14
Grids for H and He will be reduced by one unit

# of grid points (after initial pruning)     ...   4084 (   0.0 sec)
# of grid points (after weights+screening)   ...   4023 (   0.0 sec)
nearest neighbour list constructed           ...    0.0 sec
Grid point re-assignment to atoms done       ...    0.0 sec
Grid point division into batches done        ...    0.0 sec
Reduced shell lists constructed in    0.0 sec

Total number of grid points                  ...     4023
Total number of batches                      ...       65
Average number of points per batch           ...       61
Average number of grid points per atom       ...     1006
Average number of shells per batch           ...    14.03 (93.54%)
Average number of basis functions per batch  ...    27.12 (93.52%)
Average number of large shells per batch     ...    13.32 (94.92%)
Average number of large basis fcns per batch ...    25.62 (94.47%)
Maximum spatial batch extension              ...  18.70, 20.95, 21.59 au
Average spatial batch extension              ...   5.02,  4.72,  5.00 au

Time for grid setup =    0.019 sec

------------------------------
INITIAL GUESS: MODEL POTENTIAL
------------------------------
Loading Hartree-Fock densities                     ... done
Calculating cut-offs                               ... done
Setting up the integral package                    ... done
Initializing the effective Hamiltonian             ... done
Starting the Coulomb interaction                   ... done (   0.0 sec)
Reading the grid                                   ... done
Mapping shells                                     ... done
Starting the XC term evaluation                    ... done (   0.0 sec)
Transforming the Hamiltonian                       ... done (   0.0 sec)
Diagonalizing the Hamiltonian                      ... done (   0.0 sec)
Back transforming the eigenvectors                 ... done (   0.0 sec)
Now organizing SCF variables                       ... done
                      ------------------
                      INITIAL GUESS DONE (   0.1 sec)
                      ------------------
--------------
SCF ITERATIONS
--------------
ITER       Energy         Delta-E        Max-DP      RMS-DP      [F,P]     Damp
               ***  Starting incremental Fock matrix formation  ***
  0    -56.0657477334   0.000000000000 0.07991214  0.00570453  0.3151719 0.7000
  1    -56.1156161584  -0.049868425034 0.05701604  0.00412742  0.1937181 0.7000
                               ***Turning on DIIS***
  2    -56.1430509453  -0.027434786921 0.03280349  0.00241686  0.1077383 0.7000
  3    -56.3311357921  -0.188084846765 0.04767368  0.00363652  0.0584061 0.0000
  4    -56.1605525125   0.170583279602 0.00881694  0.00065465  0.0147919 0.0000
                      *** Initiating the SOSCF procedure ***
                           *** Shutting down DIIS ***
                      *** Re-Reading the Fockian *** 
                      *** Removing any level shift *** 
ITER      Energy       Delta-E        Grad      Rot      Max-DP    RMS-DP
  5    -56.19333737  -0.0327848573  0.001741  0.001741  0.002698  0.000206
               *** Restarting incremental Fock matrix formation ***
  6    -56.19446037  -0.0011230010  0.000546  0.000848  0.001469  0.000128
  7    -56.19446290  -0.0000025310  0.000244  0.000645  0.001055  0.000090
  8    -56.19446342  -0.0000005174  0.000036  0.000041  0.000060  0.000005
  9    -56.19446342  -0.0000000052  0.000009  0.000025  0.000029  0.000003
                  ***Gradient check signals convergence***
              ***Rediagonalizing the Fockian in SOSCF/NRSCF***

               *****************************************************
               *                     SUCCESS                       *
               *           SCF CONVERGED AFTER  10 CYCLES          *
               *****************************************************


----------------
TOTAL SCF ENERGY
----------------

Total Energy       :          -56.19446343 Eh           -1529.12909 eV

Components:
Nuclear Repulsion  :           11.88089983 Eh             323.29572 eV
Electronic Energy  :          -68.07536326 Eh           -1852.42481 eV
One Electron Energy:          -99.49152715 Eh           -2707.30209 eV
Two Electron Energy:           31.41616389 Eh             854.87728 eV

Virial components:
Potential Energy   :         -112.26488969 Eh           -3054.88296 eV
Kinetic Energy     :           56.07042626 Eh            1525.75387 eV
Virial Ratio       :            2.00221217


---------------
SCF CONVERGENCE
---------------

  Last Energy change         ...   -1.3297e-09  Tolerance :   1.0000e-08
  Last MAX-Density change    ...    4.5405e-06  Tolerance :   1.0000e-07
  Last RMS-Density change    ...    3.9288e-07  Tolerance :   5.0000e-09
  Last Orbital Gradient      ...    2.3738e-06  Tolerance :   1.0000e-05
  Last Orbital Rotation      ...    2.5941e-06  Tolerance :   1.0000e-05

             **** THE GBW FILE WAS UPDATED (actividad2_Q2002B.gbw) ****
             **** DENSITY FILE WAS UPDATED (actividad2_Q2002B.scfp) ****
             **** ENERGY FILE WAS UPDATED (actividad2_Q2002B.en.tmp) ****
             **** THE GBW FILE WAS UPDATED (actividad2_Q2002B.gbw) ****
             **** DENSITY FILE WAS UPDATED (actividad2_Q2002B.scfp) ****
----------------
ORBITAL ENERGIES
----------------

  NO   OCC          E(Eh)            E(eV) 
   0   2.0000     -15.540999      -422.8921 
   1   2.0000      -1.133273       -30.8379 
   2   2.0000      -0.616398       -16.7730 
   3   2.0000      -0.616398       -16.7730 
   4   2.0000      -0.422521       -11.4974 
   5   0.0000       0.221876         6.0376 
   6   0.0000       0.320878         8.7315 
   7   0.0000       0.320878         8.7315 
   8   0.0000       0.893896        24.3242 
   9   0.0000       0.893896        24.3242 
  10   0.0000       0.970884        26.4191 
  11   0.0000       1.152012        31.3478 
  12   0.0000       1.153294        31.3827 
  13   0.0000       1.153294        31.3827 
  14   0.0000       1.442344        39.2482 
  15   0.0000       1.690881        46.0112 
  16   0.0000       1.690881        46.0112 
  17   0.0000       2.144031        58.3420 
  18   0.0000       2.395762        65.1920 
  19   0.0000       2.551631        69.4334 
  20   0.0000       2.551631        69.4334 
  21   0.0000       2.676570        72.8332 
  22   0.0000       2.676570        72.8332 
  23   0.0000       3.114272        84.7436 
  24   0.0000       3.287610        89.4604 
  25   0.0000       3.287610        89.4604 
  26   0.0000       3.593877        97.7944 
  27   0.0000       3.808863       103.6444 
  28   0.0000       3.808863       103.6444 

                    ********************************
                    * MULLIKEN POPULATION ANALYSIS *
                    ********************************

-----------------------
MULLIKEN ATOMIC CHARGES
-----------------------
   0 N :   -0.782938
   1 H :    0.260979
   2 H :    0.260979
   3 H :    0.260979
Sum of atomic charges:   -0.0000000

--------------------------------
MULLIKEN REDUCED ORBITAL CHARGES
--------------------------------
  0 N s       :     3.630604  s :     3.630604
      pz      :     1.699087  p :     4.121729
      px      :     1.241912
      py      :     1.180730
      dz2     :     0.002850  d :     0.030605
      dxz     :     0.002752
      dyz     :     0.013286
      dx2y2   :     0.010460
      dxy     :     0.001256
  1 H s       :     0.713198  s :     0.713198
      pz      :     0.006663  p :     0.025822
      px      :     0.015212
      py      :     0.003947
  2 H s       :     0.713198  s :     0.713198
      pz      :     0.009408  p :     0.025822
      px      :     0.005674
      py      :     0.010740
  3 H s       :     0.713198  s :     0.713198
      pz      :     0.007931  p :     0.025822
      px      :     0.005674
      py      :     0.012217


                     *******************************
                     * LOEWDIN POPULATION ANALYSIS *
                     *******************************

----------------------
LOEWDIN ATOMIC CHARGES
----------------------
   0 N :   -0.384068
   1 H :    0.128023
   2 H :    0.128023
   3 H :    0.128023

-------------------------------
LOEWDIN REDUCED ORBITAL CHARGES
-------------------------------
  0 N s       :     3.240373  s :     3.240373
      pz      :     1.673536  p :     4.100493
      px      :     1.242332
      py      :     1.184625
      dz2     :     0.002971  d :     0.043203
      dxz     :     0.002577
      dyz     :     0.017110
      dx2y2   :     0.016829
      dxy     :     0.003715
  1 H s       :     0.792868  s :     0.792868
      pz      :     0.021944  p :     0.079109
      px      :     0.046002
      py      :     0.011163
  2 H s       :     0.792868  s :     0.792868
      pz      :     0.031558  p :     0.079109
      px      :     0.016322
      py      :     0.031229
  3 H s       :     0.792868  s :     0.792868
      pz      :     0.026748  p :     0.079109
      px      :     0.016322
      py      :     0.036039

-------------------------------
LOEWDIN ATOM POPULATIONS PER MO
-------------------------------
THRESHOLD FOR PRINTING IS 0.1%
                      0         1         2         3         4         5   
                 -15.54100  -1.13327  -0.61640  -0.61640  -0.42252   0.22188
                   2.00000   2.00000   2.00000   2.00000   2.00000   0.00000
                  --------  --------  --------  --------  --------  --------
  0 N                99.8      55.5      60.1      60.1      93.8      21.5
  1 H                 0.1      14.8       2.1      24.5       2.1      26.2
  2 H                 0.1      14.8      13.6      13.0       2.1      26.2
  3 H                 0.1      14.8      24.2       2.4       2.1      26.2

                      6         7         8         9        10        11   
                   0.32088   0.32088   0.89390   0.89390   0.97088   1.15201
                   0.00000   0.00000   0.00000   0.00000   0.00000   0.00000
                  --------  --------  --------  --------  --------  --------
  0 N                21.8      21.8      60.0      60.0      98.1      21.5
  1 H                 3.9      48.3       4.0      22.7       0.6      26.2
  2 H                27.1      25.0      21.2       5.5       0.6      26.2
  3 H                47.2       4.9      14.9      11.8       0.6      26.2

                     12        13        14        15        16        17   
                   1.15329   1.15329   1.44234   1.69088   1.69088   2.14403
                   0.00000   0.00000   0.00000   0.00000   0.00000   0.00000
                  --------  --------  --------  --------  --------  --------
  0 N                62.3      62.3      89.9      58.8      58.8      65.1
  1 H                 0.4      24.7       3.4      13.8      13.6      11.6
  2 H                15.8       9.3       3.4      12.7      14.8      11.6
  3 H                21.4       3.7       3.4      14.7      12.8      11.6

                     18        19        20        21        22        23   
                   2.39576   2.55163   2.55163   2.67657   2.67657   3.11427
                   0.00000   0.00000   0.00000   0.00000   0.00000   0.00000
                  --------  --------  --------  --------  --------  --------
  0 N                 0.0      18.8      18.8      40.3      40.3      30.0
  1 H                33.3      16.3      37.8      11.4      28.4      23.3
  2 H                33.3      23.5      30.6      14.3      25.5      23.3
  3 H                33.3      41.4      12.8      34.0       5.8      23.3

                     24        25        26        27        28   
                   3.28761   3.28761   3.59388   3.80886   3.80886
                   0.00000   0.00000   0.00000   0.00000   0.00000
                  --------  --------  --------  --------  --------
  0 N                41.2      41.2      24.9      36.8      36.8
  1 H                11.6      27.6      25.0       5.2      36.9
  2 H                16.4      22.8      25.0      17.2      24.9
  3 H                30.9       8.4      25.0      40.7       1.4

----------------------------------
LOEWDIN ORBITAL POPULATIONS PER MO
----------------------------------
THRESHOLD FOR PRINTING IS 0.1%
                      0         1         2         3         4         5   
                 -15.54100  -1.13327  -0.61640  -0.61640  -0.42252   0.22188
                   2.00000   2.00000   2.00000   2.00000   2.00000   0.00000
                  --------  --------  --------  --------  --------  --------
  0N   1s             97.9       1.5       0.0       0.0       0.1       0.1
  0N   2s              1.3      27.8       0.0       0.0       4.2      12.1
  0N   1pz             0.0       0.8       0.0       3.8      39.5       2.5
  0N   1px             0.0       0.1       1.8      26.9       5.0       0.3
  0N   1py             0.0       0.0      30.5       1.5       0.4       0.0
  0N   3s              0.5      24.8       0.0       0.0       3.8       5.5
  0N   2pz             0.0       0.4       0.0       3.2      36.0       0.5
  0N   2px             0.0       0.0       1.5      22.3       4.5       0.1
  0N   2py             0.0       0.0      25.3       1.2       0.3       0.0
  0N   1dz2            0.0       0.0       0.0       0.1       0.0       0.2
  0N   1dxz            0.0       0.0       0.0       0.1       0.0       0.1
  0N   1dyz            0.0       0.0       0.8       0.1       0.0       0.0
  0N   1dx2y2          0.0       0.0       0.1       0.7       0.0       0.0
  0N   1dxy            0.0       0.0       0.2       0.0       0.0       0.0
  1H   1s              0.0       6.0       1.1      16.3       0.9       0.0
  1H   2s              0.0       7.2       0.5       7.4       0.1      22.4
  1H   1pz             0.0       0.0       0.0       0.1       1.0       0.1
  1H   1px             0.0       1.5       0.0       0.7       0.0       3.7
  1H   1py             0.0       0.0       0.5       0.0       0.0       0.0
  2H   1s              0.0       6.0       8.9       8.5       0.9       0.0
  2H   2s              0.0       7.2       4.0       3.8       0.1      22.4
  2H   1pz             0.0       0.4       0.4       0.1       0.6       0.7
  2H   1px             0.0       0.2       0.3       0.1       0.2       0.6
  2H   1py             0.0       0.9       0.0       0.4       0.2       2.5
  3H   1s              0.0       6.0      16.1       1.3       0.9       0.0
  3H   2s              0.0       7.2       7.3       0.6       0.1      22.4
  3H   1pz             0.0       0.2       0.4       0.0       0.7       0.2
  3H   1px             0.0       0.2       0.1       0.3       0.2       0.6
  3H   1py             0.0       1.1       0.3       0.3       0.1       2.9

                      6         7         8         9        10        11   
                   0.32088   0.32088   0.89390   0.89390   0.97088   1.15201
                   0.00000   0.00000   0.00000   0.00000   0.00000   0.00000
                  --------  --------  --------  --------  --------  --------
  0N   1s              0.0       0.0       0.0       0.0       0.0       0.2
  0N   2s              0.0       0.0       0.0       0.0       1.8       9.4
  0N   1pz             0.0       1.9       0.1       0.4      39.9       0.9
  0N   1px             0.8      13.1       0.1       3.4       5.0       0.1
  0N   1py            14.9       0.7       3.7       0.2       0.4       0.0
  0N   3s              0.0       0.0       0.0       0.0       0.1       1.5
  0N   2pz             0.0       0.4       0.9       3.6      44.8       0.6
  0N   2px             0.2       2.7       1.2      32.5       5.7       0.1
  0N   2py             3.0       0.1      35.8       1.8       0.4       0.0
  0N   1dz2            0.0       0.3       0.6       1.0       0.0       5.9
  0N   1dxz            0.0       0.2       0.2       0.9       0.0       2.6
  0N   1dyz            1.9       0.2      12.3       0.2       0.0       0.2
  0N   1dx2y2          0.3       2.3       0.2      15.9       0.0       0.1
  0N   1dxy            0.8       0.0       5.0       0.3       0.0       0.0
  1H   1s              0.1       1.2       0.6      18.1       0.0      19.3
  1H   2s              2.5      40.7       0.1       4.2       0.1       3.2
  1H   1pz             0.0       0.3       0.1       0.3       0.3       0.9
  1H   1px             0.4       6.1       0.0       0.0       0.2       2.8
  1H   1py             1.0       0.0       3.1       0.2       0.0       0.0
  2H   1s              0.6       0.6      16.7       2.0       0.0      19.3
  2H   2s             22.5      20.7       3.8       0.5       0.1       3.2
  2H   1pz             2.2       1.2       0.3       0.1       0.5       0.0
  2H   1px             1.0       0.0       0.0       2.3       0.0       1.0
  2H   1py             0.8       2.6       0.4       0.6       0.0       2.7
  3H   1s              1.1       0.1      10.8       7.9       0.0      19.3
  3H   2s             39.8       3.4       2.5       1.8       0.1       3.2
  3H   1pz             2.2       0.0       0.6       0.0       0.4       0.0
  3H   1px             0.7       0.4       0.5       1.8       0.0       1.0
  3H   1py             3.5       1.1       0.5       0.2       0.1       2.7

                     12        13        14        15        16        17   
                   1.15329   1.15329   1.44234   1.69088   1.69088   2.14403
                   0.00000   0.00000   0.00000   0.00000   0.00000   0.00000
                  --------  --------  --------  --------  --------  --------
  0N   2s              0.0       0.0      28.7       0.0       0.0       4.9
  0N   1pz             0.1       4.1       0.3       0.0       0.0       0.1
  0N   1px             0.5      30.6       0.0       0.0       0.0       0.0
  0N   1py            34.4       0.3       0.0       0.0       0.1       0.0
  0N   3s              0.0       0.0      46.7       0.0       0.0       9.5
  0N   2pz             0.1       2.7       0.2       0.0       0.0       3.0
  0N   2px             0.3      20.0       0.0       0.2       0.2       0.4
  0N   2py            22.5       0.2       0.0       0.2       0.2       0.0
  0N   1dz2            0.0       0.2       9.4       5.0       9.0      31.9
  0N   1dxz            0.0       0.1       4.1      24.3      13.8      13.9
  0N   1dyz            2.5       0.1       0.3      11.6       5.9       1.0
  0N   1dx2y2          0.2       4.0       0.1       2.3       3.8       0.4
  0N   1dxy            1.7       0.0       0.0      15.1      25.8       0.1
  1H   1s              0.2      12.2       0.5       0.1       0.1       3.9
  1H   2s              0.2       9.6       0.0       0.0       0.0       0.1
  1H   1pz             0.0       0.0       2.8       9.3       5.5       5.2
  1H   1px             0.0       2.8       0.0       0.0       0.0       2.3
  1H   1py             0.0       0.0       0.0       4.5       8.1       0.0
  2H   1s              7.8       4.6       0.5       0.0       0.1       3.9
  2H   2s              6.2       3.6       0.0       0.0       0.0       0.1
  2H   1pz             0.6       0.4       1.9       0.0      10.3       7.2
  2H   1px             0.2       0.1       0.6      10.4       1.3       0.3
  2H   1py             1.1       0.6       0.3       2.3       3.1       0.1
  3H   1s             10.6       1.8       0.5       0.1       0.0       3.9
  3H   2s              8.3       1.4       0.0       0.0       0.0       0.1
  3H   1pz             0.4       0.1       2.2      12.3       0.0       6.6
  3H   1px             0.2       0.1       0.6       0.7      10.9       0.3
  3H   1py             1.8       0.3       0.1       1.5       1.8       0.7

                     18        19        20        21        22        23   
                   2.39576   2.55163   2.55163   2.67657   2.67657   3.11427
                   0.00000   0.00000   0.00000   0.00000   0.00000   0.00000
                  --------  --------  --------  --------  --------  --------
  0N   1pz             0.0       0.0       0.0       0.0       0.2       0.6
  0N   1px             0.0       0.0       0.3       0.4       1.5       0.1
  0N   1py             0.0       0.3       0.0       1.7       0.4       0.0
  0N   3s              0.0       0.0       0.0       0.0       0.0       0.5
  0N   2pz             0.0       0.0       0.6       0.0       0.0       2.5
  0N   2px             0.0       0.6       4.0       0.0       0.0       0.3
  0N   2py             0.0       4.6       0.6       0.0       0.0       0.0
  0N   1dz2            0.0       0.0       0.3       0.0       6.5      17.6
  0N   1dxz            0.0       0.0       0.0       1.2       6.3       7.6
  0N   1dyz            0.0       4.6       1.3      26.6       7.2       0.6
  0N   1dx2y2          0.0       2.4      10.6       7.6      17.8       0.2
  0N   1dxy            0.0       6.2       1.0       2.9       0.3       0.1
  1H   1s              0.0       0.5       3.4       0.5       2.0       0.0
  1H   2s              0.0       0.0       0.2       0.1       0.4       0.0
  1H   1pz             0.3       2.2      21.2       3.1      16.3      22.5
  1H   1px             0.0       2.0      12.3       2.3       9.2       0.6
  1H   1py            33.0      11.5       0.7       5.3       0.5       0.2
  2H   1s              0.0       1.5       2.5       0.8       1.8       0.0
  2H   2s              0.0       0.1       0.1       0.1       0.3       0.0
  2H   1pz             1.9       3.2       0.8      11.9      17.7      11.5
  2H   1px            22.2       0.0      20.7       1.2       3.5       6.3
  2H   1py             9.2      18.8       6.5       0.3       2.3       5.5
  3H   1s              0.0       3.9       0.1       2.6       0.0       0.0
  3H   2s              0.0       0.2       0.0       0.5       0.0       0.0
  3H   1pz             3.7       7.9       0.6      26.6       0.3      14.2
  3H   1px            22.2       9.7      11.0       0.7       4.0       6.3
  3H   1py             7.4      19.7       1.0       3.7       1.5       2.8

                     24        25        26        27        28   
                   3.28761   3.28761   3.59388   3.80886   3.80886
                   0.00000   0.00000   0.00000   0.00000   0.00000
                  --------  --------  --------  --------  --------
  0N   2s              0.0       0.0       9.8       0.0       0.0
  0N   1pz             0.0       0.0       3.7       0.0       1.3
  0N   1px             0.0       0.0       0.5       1.1       8.3
  0N   1py             0.0       0.0       0.0       9.4       1.0
  0N   3s              0.0       0.0       7.2       0.0       0.0
  0N   2pz             0.1       0.0       0.1       0.0       0.3
  0N   2px             0.9       0.2       0.0       0.3       2.0
  0N   2py             0.2       1.0       0.0       2.3       0.3
  0N   1dz2            6.1       0.5       2.4       0.0       2.7
  0N   1dxz           15.9       5.4       1.0       0.1       2.2
  0N   1dyz            0.0       4.5       0.1      15.5       2.7
  0N   1dx2y2         10.5       1.4       0.0       3.6      15.7
  0N   1dxy            7.5      28.2       0.0       4.5       0.4
  1H   1s              0.0       0.0       2.6       1.2       9.0
  1H   2s              0.0       0.0       0.2       0.1       0.8
  1H   1pz             5.7       2.6       0.2       0.0       0.1
  1H   1px             0.0       0.0      22.1       3.7      27.0
  1H   1py             5.9      25.1       0.0       0.2       0.0
  2H   1s              0.0       0.0       2.6       4.2       6.1
  2H   2s              0.0       0.0       0.2       0.4       0.5
  2H   1pz             6.9       0.1       8.6       4.7       6.0
  2H   1px             2.8      19.7       1.8       1.9       1.2
  2H   1py             6.6       3.0      11.9       6.2      11.1
  3H   1s              0.0       0.0       2.6      10.0       0.3
  3H   2s              0.0       0.0       0.2       0.9       0.0
  3H   1pz             4.6       4.8       4.9       5.8       0.1
  3H   1px            19.1       3.5       1.8       3.1       0.0
  3H   1py             7.2       0.1      15.5      21.1       1.0


                      *****************************
                      * MAYER POPULATION ANALYSIS *
                      *****************************

  NA   - Mulliken gross atomic population
  ZA   - Total nuclear charge
  QA   - Mulliken gross atomic charge
  VA   - Mayer's total valence
  BVA  - Mayer's bonded valence
  FA   - Mayer's free valence

  ATOM       NA         ZA         QA         VA         BVA        FA
  0 N      7.7829     7.0000    -0.7829     2.7549     2.7549    -0.0000
  1 H      0.7390     1.0000     0.2610     0.9090     0.9090    -0.0000
  2 H      0.7390     1.0000     0.2610     0.9090     0.9090    -0.0000
  3 H      0.7390     1.0000     0.2610     0.9090     0.9090    -0.0000

  Mayer bond orders larger than 0.100000
B(  0-N ,  1-H ) :   0.9183 B(  0-N ,  2-H ) :   0.9183 B(  0-N ,  3-H ) :   0.9183 


-------
TIMINGS
-------

Total SCF time: 0 days 0 hours 0 min 1 sec 

Total time                  ....       1.414 sec
Sum of individual times     ....       1.200 sec  ( 84.9%)

Fock matrix formation       ....       1.034 sec  ( 73.1%)
Diagonalization             ....       0.002 sec  (  0.1%)
Density matrix formation    ....       0.000 sec  (  0.0%)
Population analysis         ....       0.006 sec  (  0.4%)
Initial guess               ....       0.118 sec  (  8.4%)
Orbital Transformation      ....       0.000 sec  (  0.0%)
Orbital Orthonormalization  ....       0.000 sec  (  0.0%)
DIIS solution               ....       0.001 sec  (  0.1%)
SOSCF solution              ....       0.020 sec  (  1.4%)

-------------------------   --------------------
FINAL SINGLE POINT ENERGY       -56.194463425799
-------------------------   --------------------

------------------------------------------------------------------------------
                         ORCA SCF GRADIENT CALCULATION
------------------------------------------------------------------------------

Gradient of the Hartree-Fock SCF energy:
Hartree-Fock type                ... RHF
Number of operators              ...    1
Number of atoms                  ...    4
Basis set dimensions             ...   29
Integral neglect threshold       ... 2.5e-11
Integral primitive cutoff        ... 2.5e-12

Nuclear repulsion gradient       ... done
One Electron Gradient            ... done
Pre-screening matrix             ... done
Starting the two electron gradient:
Two electron gradient done

------------------
CARTESIAN GRADIENT
------------------

   1   N   :   -0.006800946   -0.001837394    0.019147959
   2   H   :    0.014839016    0.000187918   -0.001958078
   3   H   :   -0.004019017   -0.010670614   -0.009698003
   4   H   :   -0.004019054    0.012320089   -0.007491878

Difference to translation invariance:
           :   -0.0000000000    0.0000000000    0.0000000000

Norm of the cartesian gradient     ...    0.0329919740
RMS gradient                       ...    0.0095239625
MAX gradient                       ...    0.0191479585

-------
TIMINGS
-------

Total SCF gradient time            ...        0.193 sec

One electron gradient       ....       0.002 sec  (  1.2%)
Prescreening matrices       ....       0.004 sec  (  2.2%)
Two electron gradient       ....       0.037 sec  ( 19.2%)
------------------------------------------------------------------------------
                         ORCA GEOMETRY RELAXATION STEP
------------------------------------------------------------------------------

Reading the OPT-File                    .... done
Getting information on internals        .... done
Copying old internal coords+grads       .... done
Making the new internal coordinates     .... (new redundants).... done
Validating the new internal coordinates .... (new redundants).... done
Calculating the B-matrix                .... done
Calculating the G,G- and P matrices     .... done
Transforming gradient to internals      .... done
Projecting the internal gradient        .... done
Number of atoms                         ....   4
Number of internal coordinates          ....   7
Current Energy                          ....   -56.194463426 Eh
Current gradient norm                   ....     0.032991974 Eh/bohr
Maximum allowed component of the step   ....  0.300
Current trust radius                    ....  0.300
Evaluating the initial hessian          ....  (Almloef) done
Projecting the Hessian                  .... done
Forming the augmented Hessian           .... done
Diagonalizing the augmented Hessian     .... done
Last element of RFO vector              ....  0.997967630
Lowest eigenvalues of augmented Hessian:
 -0.001626610  0.112148204  0.300074336  0.300078685  0.418635453
Length of the computed step             ....  0.063852683
The final length of the internal step   ....  0.063852683
Converting the step to cartesian space:
 Initial RMS(Int)=    0.0241340458
Transforming coordinates:
 Iter   0:  RMS(Cart)=    0.0154708970 RMS(Int)=    0.0241468197
 Iter   1:  RMS(Cart)=    0.0000667499 RMS(Int)=    0.0001228199
 Iter   2:  RMS(Cart)=    0.0000013094 RMS(Int)=    0.0000022103
 Iter   3:  RMS(Cart)=    0.0000000214 RMS(Int)=    0.0000000365
done
Storing new coordinates                 .... done

                                .--------------------.
          ----------------------|Geometry convergence|-------------------------
          Item                value                   Tolerance       Converged
          ---------------------------------------------------------------------
          RMS gradient        0.0098081346            0.0001000000      NO
          MAX gradient        0.0149273123            0.0003000000      NO
          RMS step            0.0241340458            0.0020000000      NO
          MAX step            0.0355190572            0.0040000000      NO
          ........................................................
          Max(Bonds)      0.0188      Max(Angles)    0.36
          Max(Dihed)        0.00      Max(Improp)    0.76
          ---------------------------------------------------------------------

The optimization has not yet converged - more geometry cycles are needed


    ---------------------------------------------------------------------------
                         Redundant Internal Coordinates
                            (Angstroem and degrees)

        Definition                    Value    dE/dq     Step     New-Value
    ----------------------------------------------------------------------------
     1. B(H   1,N   0)                1.0190  0.014927 -0.0188    1.0002   
     2. B(H   2,N   0)                1.0190  0.014927 -0.0188    1.0002   
     3. B(H   3,N   0)                1.0190  0.014927 -0.0188    1.0002   
     4. A(H   1,N   0,H   3)          106.00 -0.000571    0.35    106.35   
     5. A(H   2,N   0,H   3)          106.00 -0.001411    0.36    106.36   
     6. A(H   1,N   0,H   2)          106.00 -0.000571    0.35    106.35   
     7. I(H   1,H   3,H   2,N   0)    -62.75 -0.001509    0.76    -61.99   
    ----------------------------------------------------------------------------

         *************************************************************
         *                GEOMETRY OPTIMIZATION CYCLE   2            *
         *************************************************************
---------------------------------
CARTESIAN COORDINATES (ANGSTROEM)
---------------------------------
  N     -6.435120    2.343198    0.029335
  H     -5.436253    2.348137   -0.022123
  H     -6.743664    1.595268   -0.558721
  H     -6.743667    3.189306   -0.405761

----------------------------
CARTESIAN COORDINATES (A.U.)
----------------------------
  NO LB      ZA    FRAG     MASS         X           Y           Z
   0 N     7.0000    0    14.007  -12.160614    4.428002    0.055436
   1 H     1.0000    0     1.008  -10.273029    4.437337   -0.041807
   2 H     1.0000    0     1.008  -12.743678    3.014619   -1.055829
   3 H     1.0000    0     1.008  -12.743683    6.026914   -0.766777

--------------------------------
INTERNAL COORDINATES (ANGSTROEM)
--------------------------------
 N      0   0   0     0.000000000000     0.00000000     0.00000000
 H      1   0   0     1.000204123996     0.00000000     0.00000000
 H      1   2   0     1.000204124898   106.35055638     0.00000000
 H      1   2   3     1.000204134861   106.35055612   246.92310895

---------------------------
INTERNAL COORDINATES (A.U.)
---------------------------
 N      0   0   0     0.000000000000     0.00000000     0.00000000
 H      1   0   0     1.890111872371     0.00000000     0.00000000
 H      1   2   0     1.890111874076   106.35055638     0.00000000
 H      1   2   3     1.890111892903   106.35055612   246.92310895


Diagonalization of the overlap matrix:
Smallest eigenvalue                        ... 3.193e-02
Time for diagonalization                   ...    0.000 sec
Threshold for overlap eigenvalues          ... 1.000e-08
Number of eigenvalues below threshold      ... 0
Time for construction of square roots      ...    0.000 sec
Total time needed                          ...    0.001 sec

--------------
SCF ITERATIONS
--------------
ITER       Energy         Delta-E        Max-DP      RMS-DP      [F,P]     Damp
               ***  Starting incremental Fock matrix formation  ***
  0    -56.1949408353   0.000000000000 0.00306670  0.00022721  0.0109051 0.7000
                      *** Initiating the SOSCF procedure ***
                      *** Re-Reading the Fockian *** 
                      *** Removing any level shift *** 
ITER      Energy       Delta-E        Grad      Rot      Max-DP    RMS-DP
  1    -56.19501861  -0.0000777703  0.001192  0.001192  0.008427  0.000646
               *** Restarting incremental Fock matrix formation ***
  2    -56.19520305  -0.0001844414  0.002077  0.001491  0.003390  0.000256
  3    -56.19521921  -0.0000161611  0.000574  0.000989  0.001599  0.000132
  4    -56.19522275  -0.0000035398  0.000182  0.000398  0.000597  0.000050
  5    -56.19522295  -0.0000002042  0.000037  0.000101  0.000160  0.000013
  6    -56.19522297  -0.0000000156  0.000009  0.000015  0.000025  0.000003
                 **** Energy Check signals convergence ****
              ***Rediagonalizing the Fockian in SOSCF/NRSCF***

               *****************************************************
               *                     SUCCESS                       *
               *           SCF CONVERGED AFTER   7 CYCLES          *
               *****************************************************

Total Energy       :          -56.19522297 Eh           -1529.14976 eV
  Last Energy change         ...   -1.1703e-09  Tolerance :   1.0000e-08
  Last MAX-Density change    ...    7.0631e-06  Tolerance :   1.0000e-07
             **** THE GBW FILE WAS UPDATED (actividad2_Q2002B.gbw) ****
             **** DENSITY FILE WAS UPDATED (actividad2_Q2002B.scfp) ****
             **** ENERGY FILE WAS UPDATED (actividad2_Q2002B.en.tmp) ****
             **** THE GBW FILE WAS UPDATED (actividad2_Q2002B.gbw) ****
             **** DENSITY FILE WAS UPDATED (actividad2_Q2002B.scfp) ****
Total SCF time: 0 days 0 hours 0 min 1 sec 

-------------------------   --------------------
FINAL SINGLE POINT ENERGY       -56.195222968871
-------------------------   --------------------

------------------------------------------------------------------------------
                         ORCA SCF GRADIENT CALCULATION
------------------------------------------------------------------------------

Gradient of the Hartree-Fock SCF energy:
Hartree-Fock type                ... RHF
Number of operators              ...    1
Number of atoms                  ...    4
Basis set dimensions             ...   29
Integral neglect threshold       ... 2.5e-11
Integral primitive cutoff        ... 2.5e-12

Nuclear repulsion gradient       ... done
One Electron Gradient            ... done
Pre-screening matrix             ... done
Starting the two electron gradient:
Two electron gradient done

------------------
CARTESIAN GRADIENT
------------------

   1   N   :   -0.001007200   -0.000268217    0.002795062
   2   H   :   -0.002002802    0.000168745   -0.001758579
   3   H   :    0.001504998    0.002174341   -0.000314368
   4   H   :    0.001505004   -0.002074869   -0.000722116

Difference to translation invariance:
           :   -0.0000000000    0.0000000000    0.0000000000

Norm of the cartesian gradient     ...    0.0054967467
RMS gradient                       ...    0.0015867741
MAX gradient                       ...    0.0027950621

-------
TIMINGS
-------

Total SCF gradient time            ...        0.192 sec

One electron gradient       ....       0.002 sec  (  1.2%)
Prescreening matrices       ....       0.004 sec  (  2.3%)
Two electron gradient       ....       0.039 sec  ( 20.4%)
------------------------------------------------------------------------------
                         ORCA GEOMETRY RELAXATION STEP
------------------------------------------------------------------------------

Reading the OPT-File                    .... done
Getting information on internals        .... done
Copying old internal coords+grads       .... done
Making the new internal coordinates     .... (new redundants).... done
Validating the new internal coordinates .... (new redundants).... done
Calculating the B-matrix                .... done
Calculating the G,G- and P matrices     .... done
Transforming gradient to internals      .... done
Projecting the internal gradient        .... done
Number of atoms                         ....   4
Number of internal coordinates          ....   7
Current Energy                          ....   -56.195222969 Eh
Current gradient norm                   ....     0.005496747 Eh/bohr
Maximum allowed component of the step   ....  0.300
Current trust radius                    ....  0.300
Updating the Hessian (BFGS)             .... done
Forming the augmented Hessian           .... done
Diagonalizing the augmented Hessian     .... done
Last element of RFO vector              ....  0.999623766
Lowest eigenvalues of augmented Hessian:
 -0.000106056  0.104299895  0.295296841  0.300074336  0.418635433
Length of the computed step             ....  0.027438905
The final length of the internal step   ....  0.027438905
Converting the step to cartesian space:
 Initial RMS(Int)=    0.0103709313
Transforming coordinates:
 Iter   0:  RMS(Cart)=    0.0055752662 RMS(Int)=    0.0103596998
 Iter   1:  RMS(Cart)=    0.0000335856 RMS(Int)=    0.0000541738
 Iter   2:  RMS(Cart)=    0.0000003052 RMS(Int)=    0.0000004612
 Iter   3:  RMS(Cart)=    0.0000000026 RMS(Int)=    0.0000000049
done
Storing new coordinates                 .... done

                                .--------------------.
          ----------------------|Geometry convergence|-------------------------
          Item                value                   Tolerance       Converged
          ---------------------------------------------------------------------
          Energy change      -0.0007595431            0.0000050000      NO
          RMS gradient        0.0018566985            0.0001000000      NO
          MAX gradient        0.0025026491            0.0003000000      NO
          RMS step            0.0103709313            0.0020000000      NO
          MAX step            0.0211258140            0.0040000000      NO
          ........................................................
          Max(Bonds)      0.0011      Max(Angles)    0.57
          Max(Dihed)        0.00      Max(Improp)    1.21
          ---------------------------------------------------------------------

The optimization has not yet converged - more geometry cycles are needed


    ---------------------------------------------------------------------------
                         Redundant Internal Coordinates
                            (Angstroem and degrees)

        Definition                    Value    dE/dq     Step     New-Value
    ----------------------------------------------------------------------------
     1. B(H   1,N   0)                1.0002 -0.001909  0.0011    1.0013   
     2. B(H   2,N   0)                1.0002 -0.001905  0.0011    1.0013   
     3. B(H   3,N   0)                1.0002 -0.001905  0.0011    1.0013   
     4. A(H   1,N   0,H   3)          106.35 -0.000932    0.57    106.92   
     5. A(H   2,N   0,H   3)          106.36 -0.002286    0.57    106.93   
     6. A(H   1,N   0,H   2)          106.35 -0.000932    0.57    106.92   
     7. I(H   1,H   3,H   2,N   0)    -61.98 -0.002503    1.21    -60.77   
    ----------------------------------------------------------------------------

         *************************************************************
         *                GEOMETRY OPTIMIZATION CYCLE   3            *
         *************************************************************
---------------------------------
CARTESIAN COORDINATES (ANGSTROEM)
---------------------------------
  N     -6.433185    2.343727    0.023821
  H     -5.432772    2.347822   -0.018839
  H     -6.746372    1.591340   -0.557972
  H     -6.746375    3.193019   -0.404279

----------------------------
CARTESIAN COORDINATES (A.U.)
----------------------------
  NO LB      ZA    FRAG     MASS         X           Y           Z
   0 N     7.0000    0    14.007  -12.156957    4.429002    0.045015
   1 H     1.0000    0     1.008  -10.266450    4.436741   -0.035601
   2 H     1.0000    0     1.008  -12.748795    3.007198   -1.054414
   3 H     1.0000    0     1.008  -12.748801    6.033931   -0.763977

--------------------------------
INTERNAL COORDINATES (ANGSTROEM)
--------------------------------
 N      0   0   0     0.000000000000     0.00000000     0.00000000
 H      1   0   0     1.001330603480     0.00000000     0.00000000
 H      1   2   0     1.001326589234   106.90616684     0.00000000
 H      1   2   3     1.001326588601   106.90616664   245.77386212

---------------------------
INTERNAL COORDINATES (A.U.)
---------------------------
 N      0   0   0     0.000000000000     0.00000000     0.00000000
 H      1   0   0     1.892240610091     0.00000000     0.00000000
 H      1   2   0     1.892233024266   106.90616684     0.00000000
 H      1   2   3     1.892233023069   106.90616664   245.77386212


Diagonalization of the overlap matrix:
Smallest eigenvalue                        ... 3.224e-02
Time for diagonalization                   ...    0.000 sec
Threshold for overlap eigenvalues          ... 1.000e-08
Number of eigenvalues below threshold      ... 0
Time for construction of square roots      ...    0.000 sec
Total time needed                          ...    0.001 sec

--------------
SCF ITERATIONS
--------------
ITER       Energy         Delta-E        Max-DP      RMS-DP      [F,P]     Damp
               ***  Starting incremental Fock matrix formation  ***
                      *** Initiating the SOSCF procedure ***
                      *** Re-Reading the Fockian *** 
                      *** Removing any level shift *** 
ITER      Energy       Delta-E        Grad      Rot      Max-DP    RMS-DP
  0    -56.19528323 -56.1952832293  0.002023  0.002023  0.001709  0.000182
               *** Restarting incremental Fock matrix formation ***
  1    -56.19529922  -0.0000159936  0.000761  0.000480  0.000788  0.000074
  2    -56.19530087  -0.0000016430  0.000204  0.000258  0.000385  0.000038
  3    -56.19530105  -0.0000001855  0.000036  0.000072  0.000099  0.000009
  4    -56.19530106  -0.0000000083  0.000011  0.000031  0.000042  0.000004
                 **** Energy Check signals convergence ****
              ***Rediagonalizing the Fockian in SOSCF/NRSCF***

               *****************************************************
               *                     SUCCESS                       *
               *           SCF CONVERGED AFTER   5 CYCLES          *
               *****************************************************

Total Energy       :          -56.19530106 Eh           -1529.15188 eV
  Last Energy change         ...   -1.5695e-09  Tolerance :   1.0000e-08
  Last MAX-Density change    ...    4.5088e-06  Tolerance :   1.0000e-07
             **** THE GBW FILE WAS UPDATED (actividad2_Q2002B.gbw) ****
             **** DENSITY FILE WAS UPDATED (actividad2_Q2002B.scfp) ****
             **** ENERGY FILE WAS UPDATED (actividad2_Q2002B.en.tmp) ****
             **** THE GBW FILE WAS UPDATED (actividad2_Q2002B.gbw) ****
             **** DENSITY FILE WAS UPDATED (actividad2_Q2002B.scfp) ****
Total SCF time: 0 days 0 hours 0 min 0 sec 

-------------------------   --------------------
FINAL SINGLE POINT ENERGY       -56.195301061260
-------------------------   --------------------

------------------------------------------------------------------------------
                         ORCA SCF GRADIENT CALCULATION
------------------------------------------------------------------------------

Gradient of the Hartree-Fock SCF energy:
Hartree-Fock type                ... RHF
Number of operators              ...    1
Number of atoms                  ...    4
Basis set dimensions             ...   29
Integral neglect threshold       ... 2.5e-11
Integral primitive cutoff        ... 2.5e-12

Nuclear repulsion gradient       ... done
One Electron Gradient            ... done
Pre-screening matrix             ... done
Starting the two electron gradient:
Two electron gradient done

------------------
CARTESIAN GRADIENT
------------------

   1   N   :   -0.000843092   -0.000219262    0.002284983
   2   H   :   -0.000267951    0.000092423   -0.000963167
   3   H   :    0.000555520    0.000542037   -0.000614981
   4   H   :    0.000555523   -0.000415198   -0.000706835

Difference to translation invariance:
           :   -0.0000000000    0.0000000000    0.0000000000

Norm of the cartesian gradient     ...    0.0029915336
RMS gradient                       ...    0.0008635814
MAX gradient                       ...    0.0022849827

-------
TIMINGS
-------

Total SCF gradient time            ...        0.194 sec

One electron gradient       ....       0.002 sec  (  1.1%)
Prescreening matrices       ....       0.005 sec  (  2.3%)
Two electron gradient       ....       0.036 sec  ( 18.7%)
------------------------------------------------------------------------------
                         ORCA GEOMETRY RELAXATION STEP
------------------------------------------------------------------------------

Reading the OPT-File                    .... done
Getting information on internals        .... done
Copying old internal coords+grads       .... done
Making the new internal coordinates     .... (new redundants).... done
Validating the new internal coordinates .... (new redundants).... done
Calculating the B-matrix                .... done
Calculating the G,G- and P matrices     .... done
Transforming gradient to internals      .... done
Projecting the internal gradient        .... done
Number of atoms                         ....   4
Number of internal coordinates          ....   7
Current Energy                          ....   -56.195301061 Eh
Current gradient norm                   ....     0.002991534 Eh/bohr
Maximum allowed component of the step   ....  0.300
Current trust radius                    ....  0.300
Updating the Hessian (BFGS)             .... done
Forming the augmented Hessian           .... done
Diagonalizing the augmented Hessian     .... done
Last element of RFO vector              ....  0.999454930
Lowest eigenvalues of augmented Hessian:
 -0.000058806  0.052266142  0.285405989  0.300074336  0.418635409
Length of the computed step             ....  0.033030771
The final length of the internal step   ....  0.033030771
Converting the step to cartesian space:
 Initial RMS(Int)=    0.0124844581
Transforming coordinates:
 Iter   0:  RMS(Cart)=    0.0059140594 RMS(Int)=    0.0124772624
 Iter   1:  RMS(Cart)=    0.0000525201 RMS(Int)=    0.0000756593
 Iter   2:  RMS(Cart)=    0.0000004700 RMS(Int)=    0.0000008217
 Iter   3:  RMS(Cart)=    0.0000000067 RMS(Int)=    0.0000000102
done
Storing new coordinates                 .... done

                                .--------------------.
          ----------------------|Geometry convergence|-------------------------
          Item                value                   Tolerance       Converged
          ---------------------------------------------------------------------
          Energy change      -0.0000780924            0.0000050000      NO
          RMS gradient        0.0007281355            0.0001000000      NO
          MAX gradient        0.0013261885            0.0003000000      NO
          RMS step            0.0124844581            0.0020000000      NO
          MAX step            0.0258890676            0.0040000000      NO
          ........................................................
          Max(Bonds)      0.0004      Max(Angles)    0.68
          Max(Dihed)        0.00      Max(Improp)    1.48
          ---------------------------------------------------------------------

The optimization has not yet converged - more geometry cycles are needed


    ---------------------------------------------------------------------------
                         Redundant Internal Coordinates
                            (Angstroem and degrees)

        Definition                    Value    dE/dq     Step     New-Value
    ----------------------------------------------------------------------------
     1. B(H   1,N   0)                1.0013 -0.000226 -0.0004    1.0009   
     2. B(H   2,N   0)                1.0013 -0.000224 -0.0004    1.0009   
     3. B(H   3,N   0)                1.0013 -0.000224 -0.0004    1.0009   
     4. A(H   1,N   0,H   3)          106.91 -0.000483    0.68    107.59   
     5. A(H   2,N   0,H   3)          106.92 -0.001155    0.67    107.59   
     6. A(H   1,N   0,H   2)          106.91 -0.000483    0.68    107.59   
     7. I(H   1,H   3,H   2,N   0)    -60.76 -0.001326    1.48    -59.28   
    ----------------------------------------------------------------------------

         *************************************************************
         *                GEOMETRY OPTIMIZATION CYCLE   4            *
         *************************************************************
---------------------------------
CARTESIAN COORDINATES (ANGSTROEM)
---------------------------------
  N     -6.430634    2.344416    0.016636
  H     -5.430230    2.347478   -0.015252
  H     -6.748918    1.588071   -0.556471
  H     -6.748921    3.195943   -0.402183

----------------------------
CARTESIAN COORDINATES (A.U.)
----------------------------
  NO LB      ZA    FRAG     MASS         X           Y           Z
   0 N     7.0000    0    14.007  -12.152138    4.430305    0.031438
   1 H     1.0000    0     1.008  -10.261647    4.436090   -0.028821
   2 H     1.0000    0     1.008  -12.753607    3.001019   -1.051577
   3 H     1.0000    0     1.008  -12.753612    6.039457   -0.760017

--------------------------------
INTERNAL COORDINATES (ANGSTROEM)
--------------------------------
 N      0   0   0     0.000000000000     0.00000000     0.00000000
 H      1   0   0     1.000917535022     0.00000000     0.00000000
 H      1   2   0     1.000906780783   107.57188524     0.00000000
 H      1   2   3     1.000906783416   107.57188521   244.35752805

---------------------------
INTERNAL COORDINATES (A.U.)
---------------------------
 N      0   0   0     0.000000000000     0.00000000     0.00000000
 H      1   0   0     1.891460023832     0.00000000     0.00000000
 H      1   2   0     1.891439701265   107.57188524     0.00000000
 H      1   2   3     1.891439706240   107.57188521   244.35752805


Diagonalization of the overlap matrix:
Smallest eigenvalue                        ... 3.250e-02
Time for diagonalization                   ...    0.001 sec
Threshold for overlap eigenvalues          ... 1.000e-08
Number of eigenvalues below threshold      ... 0
Time for construction of square roots      ...    0.000 sec
Total time needed                          ...    0.001 sec

--------------
SCF ITERATIONS
--------------
ITER       Energy         Delta-E        Max-DP      RMS-DP      [F,P]     Damp
               ***  Starting incremental Fock matrix formation  ***
                      *** Initiating the SOSCF procedure ***
                      *** Re-Reading the Fockian *** 
                      *** Removing any level shift *** 
ITER      Energy       Delta-E        Grad      Rot      Max-DP    RMS-DP
  0    -56.19530411 -56.1953041073  0.002503  0.002503  0.002609  0.000237
               *** Restarting incremental Fock matrix formation ***
  1    -56.19532854  -0.0000244278  0.000965  0.000612  0.001104  0.000108
  2    -56.19533168  -0.0000031454  0.000265  0.000478  0.000722  0.000066
  3    -56.19533212  -0.0000004394  0.000043  0.000092  0.000130  0.000012
  4    -56.19533214  -0.0000000188  0.000027  0.000039  0.000055  0.000005
                 **** Energy Check signals convergence ****
              ***Rediagonalizing the Fockian in SOSCF/NRSCF***

               *****************************************************
               *                     SUCCESS                       *
               *           SCF CONVERGED AFTER   5 CYCLES          *
               *****************************************************

Total Energy       :          -56.19533214 Eh           -1529.15273 eV
  Last Energy change         ...   -3.5204e-09  Tolerance :   1.0000e-08
  Last MAX-Density change    ...    7.5817e-06  Tolerance :   1.0000e-07
             **** THE GBW FILE WAS UPDATED (actividad2_Q2002B.gbw) ****
             **** DENSITY FILE WAS UPDATED (actividad2_Q2002B.scfp) ****
             **** ENERGY FILE WAS UPDATED (actividad2_Q2002B.en.tmp) ****
             **** THE GBW FILE WAS UPDATED (actividad2_Q2002B.gbw) ****
             **** DENSITY FILE WAS UPDATED (actividad2_Q2002B.scfp) ****
Total SCF time: 0 days 0 hours 0 min 0 sec 

-------------------------   --------------------
FINAL SINGLE POINT ENERGY       -56.195332142273
-------------------------   --------------------

------------------------------------------------------------------------------
                         ORCA SCF GRADIENT CALCULATION
------------------------------------------------------------------------------

Gradient of the Hartree-Fock SCF energy:
Hartree-Fock type                ... RHF
Number of operators              ...    1
Number of atoms                  ...    4
Basis set dimensions             ...   29
Integral neglect threshold       ... 2.5e-11
Integral primitive cutoff        ... 2.5e-12

Nuclear repulsion gradient       ... done
One Electron Gradient            ... done
Pre-screening matrix             ... done
Starting the two electron gradient:
Two electron gradient done

------------------
CARTESIAN GRADIENT
------------------

   1   N   :   -0.000119762   -0.000022121    0.000230506
   2   H   :    0.000084632    0.000006803   -0.000070895
   3   H   :    0.000017566   -0.000052086   -0.000085537
   4   H   :    0.000017565    0.000067404   -0.000074073

Difference to translation invariance:
           :   -0.0000000000   -0.0000000000   -0.0000000000

Norm of the cartesian gradient     ...    0.0003176116
RMS gradient                       ...    0.0000916866
MAX gradient                       ...    0.0002305058

-------
TIMINGS
-------

Total SCF gradient time            ...        0.187 sec

One electron gradient       ....       0.002 sec  (  1.1%)
Prescreening matrices       ....       0.004 sec  (  2.3%)
Two electron gradient       ....       0.039 sec  ( 21.0%)
------------------------------------------------------------------------------
                         ORCA GEOMETRY RELAXATION STEP
------------------------------------------------------------------------------

Reading the OPT-File                    .... done
Getting information on internals        .... done
Copying old internal coords+grads       .... done
Making the new internal coordinates     .... (new redundants).... done
Validating the new internal coordinates .... (new redundants).... done
Calculating the B-matrix                .... done
Calculating the G,G- and P matrices     .... done
Transforming gradient to internals      .... done
Projecting the internal gradient        .... done
Number of atoms                         ....   4
Number of internal coordinates          ....   7
Current Energy                          ....   -56.195332142 Eh
Current gradient norm                   ....     0.000317612 Eh/bohr
Maximum allowed component of the step   ....  0.300
Current trust radius                    ....  0.300
Updating the Hessian (BFGS)             .... done
Forming the augmented Hessian           .... done
Diagonalizing the augmented Hessian     .... done
Last element of RFO vector              ....  0.999996845
Lowest eigenvalues of augmented Hessian:
 -0.000000338  0.048508131  0.285551746  0.300074337  0.418635454
Length of the computed step             ....  0.002511928
The final length of the internal step   ....  0.002511928
Converting the step to cartesian space:
 Initial RMS(Int)=    0.0009494196
Transforming coordinates:
 Iter   0:  RMS(Cart)=    0.0004054072 RMS(Int)=    0.0009493933
 Iter   1:  RMS(Cart)=    0.0000003084 RMS(Int)=    0.0000004241
 Iter   2:  RMS(Cart)=    0.0000000002 RMS(Int)=    0.0000000004
done
Storing new coordinates                 .... done

                                .--------------------.
          ----------------------|Geometry convergence|-------------------------
          Item                value                   Tolerance       Converged
          ---------------------------------------------------------------------
          Energy change      -0.0000310810            0.0000050000      NO
          RMS gradient        0.0000691851            0.0001000000      YES
          MAX gradient        0.0000882821            0.0003000000      YES
          RMS step            0.0009494196            0.0020000000      YES
          MAX step            0.0019763436            0.0040000000      YES
          ........................................................
          Max(Bonds)      0.0001      Max(Angles)    0.05
          Max(Dihed)        0.00      Max(Improp)    0.11
          ---------------------------------------------------------------------

       Everything but the energy has converged. However, the energy
       appears to be close enough to convergence to make sure that the
       final evaluation at the new geometry represents the equilibrium energy.
       Convergence will therefore be signaled now


                    ***********************HURRAY********************
                    ***        THE OPTIMIZATION HAS CONVERGED     ***
                    *************************************************


    ---------------------------------------------------------------------------
                         Redundant Internal Coordinates

                          --- Optimized Parameters ---  
                            (Angstroem and degrees)

        Definition                    OldVal   dE/dq     Step     FinalVal
    ----------------------------------------------------------------------------
     1. B(H   1,N   0)                1.0009  0.000087 -0.0001    1.0008   
     2. B(H   2,N   0)                1.0009  0.000083 -0.0001    1.0008   
     3. B(H   3,N   0)                1.0009  0.000083 -0.0001    1.0008   
     4. A(H   1,N   0,H   3)          107.57 -0.000039    0.05    107.62   
     5. A(H   2,N   0,H   3)          107.59 -0.000038    0.04    107.63   
     6. A(H   1,N   0,H   2)          107.57 -0.000039    0.05    107.62   
     7. I(H   1,H   3,H   2,N   0)    -59.26 -0.000088    0.11    -59.15   
    ----------------------------------------------------------------------------
                 *******************************************************
                 *** FINAL ENERGY EVALUATION AT THE STATIONARY POINT ***
                 ***               (AFTER    4 CYCLES)               ***
                 *******************************************************
---------------------------------
CARTESIAN COORDINATES (ANGSTROEM)
---------------------------------
  N     -6.430413    2.344469    0.016089
  H     -5.430121    2.347454   -0.014998
  H     -6.749083    1.587945   -0.556335
  H     -6.749086    3.196041   -0.402026

----------------------------
CARTESIAN COORDINATES (A.U.)
----------------------------
  NO LB      ZA    FRAG     MASS         X           Y           Z
   0 N     7.0000    0    14.007  -12.151719    4.430404    0.030403
   1 H     1.0000    0     1.008  -10.261441    4.436044   -0.028341
   2 H     1.0000    0     1.008  -12.753919    3.000781   -1.051320
   3 H     1.0000    0     1.008  -12.753925    6.039642   -0.759719

--------------------------------
INTERNAL COORDINATES (ANGSTROEM)
--------------------------------
 N      0   0   0     0.000000000000     0.00000000     0.00000000
 H      1   0   0     1.000779160099     0.00000000     0.00000000
 H      1   2   0     1.000773716347   107.62326793     0.00000000
 H      1   2   3     1.000773715511   107.62326789   244.25604942

---------------------------
INTERNAL COORDINATES (A.U.)
---------------------------
 N      0   0   0     0.000000000000     0.00000000     0.00000000
 H      1   0   0     1.891198533122     0.00000000     0.00000000
 H      1   2   0     1.891188245922   107.62326793     0.00000000
 H      1   2   3     1.891188244343   107.62326789   244.25604942

---------------------
BASIS SET INFORMATION
---------------------
There are 2 groups of distinct atoms

 Group   1 Type N   : 10s4p1d contracted to 3s2p1d pattern {631/31/1}
 Group   2 Type H   : 4s1p contracted to 2s1p pattern {31/1}

Atom   0N    basis set group =>   1
Atom   1H    basis set group =>   2
Atom   2H    basis set group =>   2
Atom   3H    basis set group =>   2
------------------------------------------------------------------------------
                           ORCA GTO INTEGRAL CALCULATION
------------------------------------------------------------------------------

                         BASIS SET STATISTICS AND STARTUP INFO

 # of primitive gaussian shells          ...   30
 # of primitive gaussian functions       ...   48
 # of contracted shells                  ...   15
 # of contracted basis functions         ...   29
 Highest angular momentum                ...    2
 Maximum contraction depth               ...    6
 Integral package used                   ... LIBINT
 Integral threshhold            Thresh   ...  2.500e-11
 Primitive cut-off              TCut     ...  2.500e-12


------------------------------ INTEGRAL EVALUATION ----------------------------


 * One electron integrals 
 Pre-screening matrix                    ... done
 Shell pair data                         ... done (   0.000 sec)

[...]
                   0.00000   0.00000   0.00000   0.00000   0.00000
                  --------  --------  --------  --------  --------
  0N   2s              0.0       0.0      11.3       0.0       0.0
  0N   1pz             0.0       0.0       3.4       0.1       1.3
  0N   1px             0.1       0.0       0.4       0.0      10.5
  0N   1py             0.0       0.1       0.0      11.7       0.0
  0N   3s              0.0       0.0       6.8       0.0       0.0
  0N   2pz             0.1       0.0       0.1       0.0       0.2
  0N   2px             1.2       0.0       0.0       0.0       2.0
  0N   2py             0.0       1.3       0.0       2.2       0.0
  0N   1dz2            6.5       0.1       2.7       0.4       1.7
  0N   1dxz           21.1       0.3       1.2       0.1       1.4
  0N   1dyz            0.6       4.2       0.1      15.8       0.0
  0N   1dx2y2         11.2       0.0       0.0       0.1      19.2
  0N   1dxy            0.2      34.9       0.0       5.9       0.0
  1H   1s              0.0       0.0       2.9       0.0      10.9
  1H   2s              0.1       0.0       0.2       0.0       0.9
  1H   1pz             8.2       0.3       0.1       0.0       0.0
  1H   1px             0.0       0.0      21.4       0.0      30.6
  1H   1py             0.1      30.7       0.0       0.0       0.0
  2H   1s              0.0       0.0       2.9       8.2       2.7
  2H   2s              0.0       0.0       0.2       0.6       0.2
  2H   1pz             5.0       1.5       8.1       7.6       2.4
  2H   1px            10.4      12.3       1.8       2.6       0.6
  2H   1py             9.9       0.2      11.6      12.8       4.8
  3H   1s              0.0       0.0       2.9       8.2       2.7
  3H   2s              0.0       0.0       0.2       0.6       0.2
  3H   1pz             7.9       1.3       4.6       4.1       1.2
  3H   1px            10.4      12.3       1.8       2.6       0.6
  3H   1py             7.1       0.4      15.1      16.3       5.9


                      *****************************
                      * MAYER POPULATION ANALYSIS *
                      *****************************

  NA   - Mulliken gross atomic population
  ZA   - Total nuclear charge
  QA   - Mulliken gross atomic charge
  VA   - Mayer's total valence
  BVA  - Mayer's bonded valence
  FA   - Mayer's free valence

  ATOM       NA         ZA         QA         VA         BVA        FA
  0 N      7.7894     7.0000    -0.7894     2.7581     2.7581    -0.0000
  1 H      0.7369     1.0000     0.2631     0.9093     0.9093    -0.0000
  2 H      0.7369     1.0000     0.2631     0.9093     0.9093     0.0000
  3 H      0.7369     1.0000     0.2631     0.9093     0.9093     0.0000

  Mayer bond orders larger than 0.100000
B(  0-N ,  1-H ) :   0.9194 B(  0-N ,  2-H ) :   0.9194 B(  0-N ,  3-H ) :   0.9194 


-------
TIMINGS
-------

Total SCF time: 0 days 0 hours 0 min 0 sec 

Total time                  ....       0.858 sec
Sum of individual times     ....       0.648 sec  ( 75.5%)

Fock matrix formation       ....       0.602 sec  ( 70.2%)
Diagonalization             ....       0.000 sec  (  0.0%)
Density matrix formation    ....       0.000 sec  (  0.0%)
Population analysis         ....       0.005 sec  (  0.6%)
Initial guess               ....       0.001 sec  (  0.1%)
Orbital Transformation      ....       0.000 sec  (  0.0%)
Orbital Orthonormalization  ....       0.000 sec  (  0.0%)
DIIS solution               ....       0.000 sec  (  0.0%)
SOSCF solution              ....       0.040 sec  (  4.6%)

-------------------------   --------------------
FINAL SINGLE POINT ENERGY       -56.195332319793
-------------------------   --------------------

                                *** OPTIMIZATION RUN DONE ***

                            ***************************************
                            *     ORCA property calculations      *
                            ***************************************

                                    ---------------------
                                    Active property flags
                                    ---------------------
   (+) Dipole Moment
   (+) Polarizability


------------------------------------------------------------------------------
                       ORCA ELECTRIC PROPERTIES CALCULATION
------------------------------------------------------------------------------

Dipole Moment Calculation                       ... on
Quadrupole Moment Calculation                   ... off
Polarizability Calculation                      ... Analytic (CP-SCF)
GBWName                                         ... actividad2_Q2002B.gbw
Electron density file                           ... actividad2_Q2002B.scfp
The origin for moment calculation is the CENTER OF MASS  = (-12.111125,  4.441369 -0.083861)

-------------
DIPOLE MOMENT
-------------
                                X             Y             Z
Electronic contribution:     -0.03997      -0.01079       0.11242
Nuclear contribution   :      0.27993       0.07561      -0.78795
                        -----------------------------------------
Total Dipole Moment    :      0.23996       0.06482      -0.67553
                        -----------------------------------------
Magnitude (a.u.)       :      0.71981
Magnitude (Debye)      :      1.82960



--------------------
Rotational spectrum 
--------------------
 
Rotational constants in cm-1:    10.262401    10.261467     6.408501 
Rotational constants in MHz : 307659.033531 307631.044732 192122.041500 

 Dipole components along the rotational axes: 
x,y,z [a.u.] :     0.000000     0.000050    -0.719805 
x,y,z [Debye]:     0.000000     0.000126    -1.829600 

 
Transforming and storing MO dipole integrals   ... done

                ... starting polarizability calculation

Opening the Dipole integral file               ... (actividad2_Q2002B.dmo.tmp) done
Reading Dipole-MO integrals                    ... done
Solving CP-SCF equations                       ... 
------------------------------------------------------------------------------
                           ORCA CP-SCF CALCULATION
------------------------------------------------------------------------------

Input orbitals are from        ... actividad2_Q2002B.gbw
Input Perturbation             ... actividad2_Q2002B.cpv.tmp
Wavefunction output            ... actividad2_Q2002B.cpu.tmp
Perturbation mode              ... Real perturbation (singlet)
Solver                         ... POPLE
Max. number of iterations      ... 64
Convergence tolerance          ... 1.000e-06
Integral handling              ... Direct
Number of perturbations        ... 3
Number of operators            ... 1
Orbital ranges used for CP-SCF:
 Operator 0:  Orbitals   0...  4  to   5... 28
Variables per vector in CP-SCF ... 120
Number of vectors sought       ... 3
     CP-SCF ITERATION   0: 
     CP-SCF ITERATION   1:      0.022474345353
     CP-SCF ITERATION   2:      0.001121471772
     CP-SCF ITERATION   3:      0.000035360978
     CP-SCF ITERATION   4:      0.000001110470
     CP-SCF ITERATION   5:      0.000000712881
done
Reading CP-SCF coefficients                    ... done
Doing the polarizability tensor                ... done
Cleaning up                                    ... done

-------------------------
THE POLARIZABILITY TENSOR
-------------------------

The raw cartesian tensor (atomic units):
    8.75526     -0.11181      1.16522  
   -0.11181      9.13912      0.31490  
    1.16522      0.31490      5.88868  
diagonalized tensor: 
    5.44457      9.16914      9.16935  

   -0.33335      0.93213      0.14149  
   -0.09008     -0.18087      0.97937  
    0.93849      0.31373      0.14426  

Isotropic polarizability :   7.92769


----------------------------------------------------------------------------
                           ORCA NUMERICAL FREQUENCIES
----------------------------------------------------------------------------

Number of atoms                ... 4
Central differences            ... used
Number of displacements        ... 24
Numerical increment            ... 5.000e-03 bohr
IR-spectrum generation         ... on
Raman-spectrum generation      ... on
Polarizability calculation     ... 1
Surface Crossing Hessian       ... off

The output will be reduced. Please look at the following files:
SCF program output             ... >actividad2_Q2002B.lastscf
Integral program output        ... >actividad2_Q2002B.lastint
Gradient program output        ... >actividad2_Q2002B.lastgrad
Dipole moment program output   ... >actividad2_Q2002B.lastmom
AutoCI program output          ... >actividad2_Q2002B.lastautoci


         <<< Energy and Gradient at the input geometry >>>

        <<< Energy and Gradient at displaced geometries >>>
             <<<Displacing   1/coordinate 1 (+)>>>
             <<<Displacing   1/coordinate 1 (-)>>>
             <<<Displacing   1/coordinate 2 (+)>>>
             <<<Displacing   1/coordinate 2 (-)>>>
             <<<Displacing   1/coordinate 3 (+)>>>
             <<<Displacing   1/coordinate 3 (-)>>>
             <<<Displacing   2/coordinate 1 (+)>>>
             <<<Displacing   2/coordinate 1 (-)>>>
             <<<Displacing   2/coordinate 2 (+)>>>
             <<<Displacing   2/coordinate 2 (-)>>>
             <<<Displacing   2/coordinate 3 (+)>>>
             <<<Displacing   2/coordinate 3 (-)>>>
             <<<Displacing   3/coordinate 1 (+)>>>
             <<<Displacing   3/coordinate 1 (-)>>>
             <<<Displacing   3/coordinate 2 (+)>>>
             <<<Displacing   3/coordinate 2 (-)>>>
             <<<Displacing   3/coordinate 3 (+)>>>
             <<<Displacing   3/coordinate 3 (-)>>>
             <<<Displacing   4/coordinate 1 (+)>>>
             <<<Displacing   4/coordinate 1 (-)>>>
             <<<Displacing   4/coordinate 2 (+)>>>
             <<<Displacing   4/coordinate 2 (-)>>>
             <<<Displacing   4/coordinate 3 (+)>>>
             <<<Displacing   4/coordinate 3 (-)>>>

-----------------------
VIBRATIONAL FREQUENCIES
-----------------------

Scaling factor for frequencies =  1.000000000 (already applied!)

   0:         0.00 cm**-1
   1:         0.00 cm**-1
   2:         0.00 cm**-1
   3:         0.00 cm**-1
   4:         0.00 cm**-1
   5:         0.00 cm**-1
   6:      1142.64 cm**-1
   7:      1810.02 cm**-1
   8:      1810.25 cm**-1
   9:      3706.25 cm**-1
  10:      3842.88 cm**-1
  11:      3843.08 cm**-1


------------
NORMAL MODES
------------

These modes are the cartesian displacements weighted by the diagonal matrix
M(i,i)=1/sqrt(m[i]) where m[i] is the mass of the displaced atom
Thus, these vectors are normalized but *not* orthogonal

                  0          1          2          3          4          5    
      0       0.000000   0.000000   0.000000   0.000000   0.000000   0.000000
      1       0.000000   0.000000   0.000000   0.000000   0.000000   0.000000
      2       0.000000   0.000000   0.000000   0.000000   0.000000   0.000000
      3       0.000000   0.000000   0.000000   0.000000   0.000000   0.000000
      4       0.000000   0.000000   0.000000   0.000000   0.000000   0.000000
      5       0.000000   0.000000   0.000000   0.000000   0.000000   0.000000
      6       0.000000   0.000000   0.000000   0.000000   0.000000   0.000000
      7       0.000000   0.000000   0.000000   0.000000   0.000000   0.000000
      8       0.000000   0.000000   0.000000   0.000000   0.000000   0.000000
      9       0.000000   0.000000   0.000000   0.000000   0.000000   0.000000
     10       0.000000   0.000000   0.000000   0.000000   0.000000   0.000000
     11       0.000000   0.000000   0.000000   0.000000   0.000000   0.000000
                  6          7          8          9         10         11    
      0      -0.038587  -0.000955   0.063714  -0.012444   0.075319  -0.004296
      1      -0.010421  -0.067240  -0.003161  -0.003345  -0.007083  -0.079392
      2       0.108604  -0.006791   0.022344   0.034870   0.026102  -0.009146
      3      -0.013478  -0.000738   0.049546   0.577138  -0.811685   0.046297
      4       0.054766   0.761689  -0.014926  -0.002045  -0.002862  -0.019189
      5      -0.570708   0.068936   0.275644   0.021108   0.018149  -0.002894
      6       0.274837  -0.432162  -0.474045  -0.202092  -0.104068   0.241544
      7       0.220652   0.073937   0.418791  -0.450192  -0.287364   0.547196
      8      -0.452367   0.080310  -0.254675  -0.298350  -0.202946   0.412796
      9       0.274845   0.446170  -0.460864  -0.202123  -0.130874  -0.228143
     10      -0.130609   0.098736  -0.359934   0.498724   0.388651   0.575216
     11      -0.486068  -0.054880  -0.331455  -0.207301  -0.177913  -0.282816


-----------
IR SPECTRUM  
-----------

 Mode    freq (cm**-1)   T**2         TX         TY         TZ
-------------------------------------------------------------------
   6:      1142.64  217.634477  (  4.925220   1.332036 -13.842051)
   7:      1810.02   21.057529  (  0.068039   4.565536   0.456921)
   8:      1810.25   21.027078  ( -4.323536   0.217291  -1.512250)
   9:      3706.25    0.093956  (  0.097967   0.027561  -0.289134)
  10:      3842.88    0.828226  ( -0.856535   0.080938  -0.296687)
  11:      3843.08    0.841275  (  0.048892   0.910142   0.102594)

--------------
RAMAN SPECTRUM  
--------------

 Mode    freq (cm**-1)   Activity   Depolarization
-------------------------------------------------------------------
   6:      1142.64      9.023170      0.137799
   7:      1810.02      9.807018      0.750000
   8:      1810.25      9.805579      0.750000
   9:      3706.25    117.325008      0.071937
  10:      3842.88     55.484577      0.749999
  11:      3843.08     55.481946      0.750000

The first frequency considered to be a vibration is 6
The total number of vibrations considered is 6


--------------------------
THERMOCHEMISTRY AT 298.15K
--------------------------

Temperature         ... 298.15 K
Pressure            ... 1.00 atm
Total Mass          ... 17.03 AMU

Throughout the following assumptions are being made:
  (1) The electronic state is orbitally nondegenerate
  (2) There are no thermally accessible electronically excited states
  (3) Hindered rotations indicated by low frequency modes are not
      treated as such but are treated as vibrations and this may
      cause some error
  (4) All equations used are the standard statistical mechanics
      equations for an ideal gas
  (5) All vibrations are strictly harmonic

freq.    1142.64  E(vib)   ...       0.01 
freq.    1810.02  E(vib)   ...       0.00 
freq.    1810.25  E(vib)   ...       0.00 
freq.    3706.25  E(vib)   ...       0.00 
freq.    3842.88  E(vib)   ...       0.00 
freq.    3843.08  E(vib)   ...       0.00 

------------
INNER ENERGY
------------

The inner energy is: U= E(el) + E(ZPE) + E(vib) + E(rot) + E(trans)
    E(el)   - is the total energy from the electronic structure calculation
              = E(kin-el) + E(nuc-el) + E(el-el) + E(nuc-nuc)
    E(ZPE)  - the the zero temperature vibrational energy from the frequency calculation
    E(vib)  - the the finite temperature correction to E(ZPE) due to population
              of excited vibrational states
    E(rot)  - is the rotational thermal energy
    E(trans)- is the translational thermal energy

Summary of contributions to the inner energy U:
Electronic energy                ...    -56.19533232 Eh
Zero point energy                ...      0.03680408 Eh      23.09 kcal/mol
Thermal vibrational correction   ...      0.00002372 Eh       0.01 kcal/mol
Thermal rotational correction    ...      0.00141627 Eh       0.89 kcal/mol
Thermal translational correction ...      0.00141627 Eh       0.89 kcal/mol
-----------------------------------------------------------------------
Total thermal energy                    -56.15567198 Eh


Summary of corrections to the electronic energy:
(perhaps to be used in another calculation)
Total thermal correction                  0.00285627 Eh       1.79 kcal/mol
Non-thermal (ZPE) correction              0.03680408 Eh      23.09 kcal/mol
-----------------------------------------------------------------------
Total correction                          0.03966034 Eh      24.89 kcal/mol


--------
ENTHALPY
--------

The enthalpy is H = U + kB*T
                kB is Boltzmann's constant
Total free energy                 ...    -56.15567198 Eh 
Thermal Enthalpy correction       ...      0.00094421 Eh       0.59 kcal/mol
-----------------------------------------------------------------------
Total Enthalpy                    ...    -56.15472777 Eh


Note: Rotational entropy computed according to Herzberg 
Infrared and Raman Spectra, Chapter V,1, Van Nostrand Reinhold, 1945 
Point Group:  Cs, Symmetry Number:   1  
Rotational constants in cm-1:    10.262401    10.261467     6.408501 

Vibrational entropy computed according to the QRRHO of S. Grimme
Chem.Eur.J. 2012 18 9955


-------
ENTROPY
-------

The entropy contributions are T*S = T*(S(el)+S(vib)+S(rot)+S(trans))
     S(el)   - electronic entropy
     S(vib)  - vibrational entropy
     S(rot)  - rotational entropy
     S(trans)- translational entropy
The entropies will be listed as mutliplied by the temperature to get
units of energy

Electronic entropy                ...      0.00000000 Eh      0.00 kcal/mol
Vibrational entropy               ...      0.00002785 Eh      0.02 kcal/mol
Rotational entropy                ...      0.00643537 Eh      4.04 kcal/mol
Translational entropy             ...      0.01636425 Eh     10.27 kcal/mol
-----------------------------------------------------------------------
Final entropy term                ...      0.02282747 Eh     14.32 kcal/mol

In case the symmetry of your molecule has not been determined correctly
or in case you have a reason to use a different symmetry number we print 
out the resulting rotational entropy values for sn=1,12 :
 --------------------------------------------------------
|  sn= 1 | S(rot)=       0.00643537 Eh      4.04 kcal/mol|
|  sn= 2 | S(rot)=       0.00578092 Eh      3.63 kcal/mol|
|  sn= 3 | S(rot)=       0.00539808 Eh      3.39 kcal/mol|
|  sn= 4 | S(rot)=       0.00512646 Eh      3.22 kcal/mol|
|  sn= 5 | S(rot)=       0.00491577 Eh      3.08 kcal/mol|
|  sn= 6 | S(rot)=       0.00474363 Eh      2.98 kcal/mol|
|  sn= 7 | S(rot)=       0.00459808 Eh      2.89 kcal/mol|
|  sn= 8 | S(rot)=       0.00447200 Eh      2.81 kcal/mol|
|  sn= 9 | S(rot)=       0.00436080 Eh      2.74 kcal/mol|
|  sn=10 | S(rot)=       0.00426132 Eh      2.67 kcal/mol|
|  sn=11 | S(rot)=       0.00417133 Eh      2.62 kcal/mol|
|  sn=12 | S(rot)=       0.00408917 Eh      2.57 kcal/mol|
 --------------------------------------------------------


-------------------
GIBBS FREE ENERGY
-------------------

The Gibbs free energy is G = H - T*S

Total enthalpy                    ...    -56.15472777 Eh 
Total entropy correction          ...     -0.02282747 Eh    -14.32 kcal/mol
-----------------------------------------------------------------------
Final Gibbs free energy         ...    -56.17755524 Eh

For completeness - the Gibbs free energy minus the electronic energy
G-E(el)                           ...      0.01777708 Eh     11.16 kcal/mol


Total Time for Numerical Frequencies  :        95.546 sec

Timings for individual modules:

Sum of individual times         ...        9.785 sec (=   0.163 min)
GTO integral calculation        ...        1.567 sec (=   0.026 min)  16.0 %
SCF iterations                  ...        5.564 sec (=   0.093 min)  56.9 %
Solution of CP-SCF eqns.        ...        1.432 sec (=   0.024 min)  14.6 %
SCF Gradient evaluation         ...        1.080 sec (=   0.018 min)  11.0 %
Geometry relaxation             ...        0.143 sec (=   0.002 min)   1.5 %
                             ****ORCA TERMINATED NORMALLY****
TOTAL RUN TIME: 0 days 0 hours 1 minutes 43 seconds 914 msec
