
                                 *****************
                                 * O   R   C   A *
                                 *****************

           --- An Ab Initio, DFT and Semiempirical electronic structure package ---

                  #######################################################
                  #                        -***-                        #
                  #          Department of theory and spectroscopy      #
                  #               Directorship: Frank Neese             #
                  #        Max Planck Institute fuer Kohlenforschung    #
                  #                Kaiser Wilhelm Platz 1               #
                  #                 D-45470 Muelheim/Ruhr               #
                  #                      Germany                        #
                  #                                                     #
                  #                  All rights reserved                #
                  #                        -***-                        #
                  #######################################################


                         Program Version 4.2.1 -  RELEASE  -


 With contributions from (in alphabetic order):
   Daniel Aravena         : Magnetic Suceptibility
   Michael Atanasov       : Ab Initio Ligand Field Theory (pilot matlab implementation)
   Alexander A. Auer      : GIAO ZORA, VPT2
   Ute Becker             : Parallelization
   Giovanni Bistoni       : ED, misc. LED, open-shell LED, HFLD
   Martin Brehm           : Molecular dynamics
   Dmytro Bykov           : SCF Hessian
   Vijay G. Chilkuri      : MRCI spin determinant printing, contributions to CSF-ICE
   Dipayan Datta          : RHF DLPNO-CCSD density
   Achintya Kumar Dutta   : EOM-CC, STEOM-CC
   Dmitry Ganyushin       : Spin-Orbit,Spin-Spin,Magnetic field MRCI
   Miquel Garcia          : C-PCM Hessian, Gaussian charge scheme
   Yang Guo               : DLPNO-NEVPT2, CIM, IAO-localization
   Andreas Hansen         : Spin unrestricted coupled pair/coupled cluster methods
   Benjamin Helmich-Paris : CASSCF linear response (MC-RPA)
   Lee Huntington         : MR-EOM, pCC
   Robert Izsak           : Overlap fitted RIJCOSX, COSX-SCS-MP3, EOM
   Christian Kollmar      : KDIIS, OOCD, Brueckner-CCSD(T), CCSD density
   Simone Kossmann        : Meta GGA functionals, TD-DFT gradient, OOMP2, MP2 Hessian
   Martin Krupicka        : AUTO-CI
   Lucas Lang             : DCDCAS
   Dagmar Lenk            : GEPOL surface, SMD
   Dimitrios Liakos       : Extrapolation schemes; Compound Job, initial MDCI parallelization
   Dimitrios Manganas     : Further ROCIS development; embedding schemes
   Dimitrios Pantazis     : SARC Basis sets
   Taras Petrenko         : DFT Hessian,TD-DFT gradient, ASA, ECA, R-Raman, ABS, FL, XAS/XES, NRVS
   Peter Pinski           : DLPNO-MP2, DLPNO-MP2 Gradient
   Christoph Reimann      : Effective Core Potentials
   Marius Retegan         : Local ZFS, SOC
   Christoph Riplinger    : Optimizer, TS searches, QM/MM, DLPNO-CCSD(T), (RO)-DLPNO pert. Triples
   Tobias Risthaus        : Range-separated hybrids, TD-DFT gradient, RPA, STAB
   Michael Roemelt        : Original ROCIS implementation
   Masaaki Saitow         : Open-shell DLPNO-CCSD energy and density
   Barbara Sandhoefer     : DKH picture change effects
   Avijit Sen             : IP-ROCIS
   Kantharuban Sivalingam : CASSCF convergence, NEVPT2, FIC-MRCI
   Bernardo de Souza      : ESD, SOC TD-DFT
   Georgi Stoychev        : AutoAux, RI-MP2 NMR
   Willem Van den Heuvel  : Paramagnetic NMR
   Boris Wezisla          : Elementary symmetry handling
   Frank Wennmohs         : Technical directorship


 We gratefully acknowledge several colleagues who have allowed us to
 interface, adapt or use parts of their codes:
   Stefan Grimme, W. Hujo, H. Kruse,             : VdW corrections, initial TS optimization,
                  C. Bannwarth                     DFT functionals, gCP, sTDA/sTD-DF
   Ed Valeev, F. Pavosevic, A. Kumar             : LibInt (2-el integral package), F12 methods
   Garnet Chan, S. Sharma, J. Yang, R. Olivares  : DMRG
   Ulf Ekstrom                                   : XCFun DFT Library
   Mihaly Kallay                                 : mrcc  (arbitrary order and MRCC methods)
   Andreas Klamt, Michael Diedenhofen            : otool_cosmo (COSMO solvation model)
   Jiri Pittner, Ondrej Demel                    : Mk-CCSD
   Frank Weinhold                                : gennbo (NPA and NBO analysis)
   Christopher J. Cramer and Donald G. Truhlar   : smd solvation model
   Lars Goerigk                                  : TD-DFT with DH, B97 family of functionals
   V. Asgeirsson, H. Jonsson                     : NEB implementation
   FAccTs GmbH                                   : IRC, NEB, NEB-TS, Multilevel, MM, QM/MM, CI optimization
   S Lehtola, MJT Oliveira, MAL Marques          : LibXC Library


 Your calculation uses the libint2 library for the computation of 2-el integrals
 For citations please refer to: http://libint.valeyev.net

 Your ORCA version has been built with support for libXC version: 4.2.3
 For citations please refer to: https://tddft.org/programs/libxc/

 This ORCA versions uses:
   CBLAS   interface :  Fast vector & matrix operations
   LAPACKE interface :  Fast linear algebra routines
   SCALAPACK package :  Parallel linear algebra routines


SCAN-COORDS
----- Orbital basis set information -----
Your calculation utilizes the basis: def2-TZVP
   F. Weigend and R. Ahlrichs, Phys. Chem. Chem. Phys. 7, 3297 (2005).

----- AuxJ basis set information -----
Your calculation utilizes the auxiliary basis: def2/J
   F. Weigend, Phys. Chem. Chem. Phys. 8, 1057 (2006).

================================================================================
                                        WARNINGS
                       Please study these warnings very carefully!
================================================================================


WARNING: Geometry Optimization
  ===> : Switching off AutoStart
         For restart on a previous wavefunction, please use MOREAD

INFO   : the flag for use of LIBINT has been found!

================================================================================
                                       INPUT FILE
================================================================================
NAME = ./PH2N_VWN/input.inp
|  1> ! VWN
|  2> 
|  3> %method
|  4>         method DFT
|  5>         runtyp OPT
|  6> end
|  7> 
|  8> %basis
|  9>         basis "def2-TZVP"
| 10> end
| 11> ! NumFreq
| 12> %output
| 13>         XYZFile true
| 14> end
| 15> %coords
| 16>         CTyp xyz
| 17>         Charge -2
| 18>         Mult 1
| 19>         Units Angs
| 20>         coords
| 21>         P       -1.3964703605      0.5346218729     -0.0392481365                 
| 22> 	H        0.1725606238      0.5123737189     -0.0821591799
| 23>         end
| 24> end
| 25> 
| 26>                          ****END OF INPUT****
================================================================================

                       *****************************
                       * Geometry Optimization Run *
                       *****************************

Geometry optimization settings:
Update method            Update   .... BFGS
Choice of coordinates    CoordSys .... Z-matrix Internals
Initial Hessian          InHess   .... Almoef's Model

Convergence Tolerances:
Energy Change            TolE     ....  5.0000e-06 Eh
Max. Gradient            TolMAXG  ....  3.0000e-04 Eh/bohr
RMS Gradient             TolRMSG  ....  1.0000e-04 Eh/bohr
Max. Displacement        TolMAXD  ....  4.0000e-03 bohr
RMS Displacement         TolRMSD  ....  2.0000e-03 bohr
Strict Convergence                ....  False
------------------------------------------------------------------------------
                        ORCA OPTIMIZATION COORDINATE SETUP
------------------------------------------------------------------------------

The optimization will be done in new redundant internal coordinates
Making redundant internal coordinates   ...  (new redundants) done
Evaluating the initial hessian          ...  (Almloef) done
Evaluating the coordinates              ...  done
Calculating the B-matrix                .... done
Calculating the G-matrix                .... done
Diagonalizing the G-matrix              .... done
The first mode is                       ....    0
The number of degrees of freedom        ....    1

    -----------------------------------------------------------------
                    Redundant Internal Coordinates


    -----------------------------------------------------------------
         Definition                    Initial Value    Approx d2E/dq
    -----------------------------------------------------------------
      1. B(H   1,P   0)                  1.5698         0.207714   
    -----------------------------------------------------------------

Number of atoms                         .... 2
Number of degrees of freedom            .... 1

         *************************************************************
         *                GEOMETRY OPTIMIZATION CYCLE   1            *
         *************************************************************
---------------------------------
CARTESIAN COORDINATES (ANGSTROEM)
---------------------------------
  P     -1.396470    0.534622   -0.039248
  H      0.172561    0.512374   -0.082159

----------------------------
CARTESIAN COORDINATES (A.U.)
----------------------------
  NO LB      ZA    FRAG     MASS         X           Y           Z
   0 P    15.0000    0    30.974   -2.638947    1.010289   -0.074168
   1 H     1.0000    0     1.008    0.326092    0.968246   -0.155258

--------------------------------
INTERNAL COORDINATES (ANGSTROEM)
--------------------------------
 P      0   0   0     0.000000000000     0.00000000     0.00000000
 H      1   0   0     1.569775323954     0.00000000     0.00000000

---------------------------
INTERNAL COORDINATES (A.U.)
---------------------------
 P      0   0   0     0.000000000000     0.00000000     0.00000000
 H      1   0   0     2.966445454061     0.00000000     0.00000000

---------------------
BASIS SET INFORMATION
---------------------
There are 2 groups of distinct atoms

 Group   1 Type P   : 14s9p3d1f contracted to 5s5p2d1f pattern {73211/51111/21/1}
 Group   2 Type H   : 5s1p contracted to 3s1p pattern {311/1}

Atom   0P    basis set group =>   1
Atom   1H    basis set group =>   2
---------------------------------
AUXILIARY/J BASIS SET INFORMATION
---------------------------------
There are 2 groups of distinct atoms

 Group   1 Type P   : 14s5p5d2f1g contracted to 8s4p3d1f1g pattern {71111111/2111/311/2/1}
 Group   2 Type H   : 5s2p1d contracted to 3s1p1d pattern {311/2/1}

Atom   0P    basis set group =>   1
Atom   1H    basis set group =>   2
------------------------------------------------------------------------------
                           ORCA GTO INTEGRAL CALCULATION
                           -- RI-GTO INTEGRALS CHOSEN --
------------------------------------------------------------------------------

                         BASIS SET STATISTICS AND STARTUP INFO

Gaussian basis set:
 # of primitive gaussian shells          ...   33
 # of primitive gaussian functions       ...   71
 # of contracted shells                  ...   17
 # of contracted basis functions         ...   43
 Highest angular momentum                ...    3
 Maximum contraction depth               ...    7
Auxiliary gaussian basis set:
 # of primitive gaussian shells          ...   35
 # of primitive gaussian functions       ...   93
 # of contracted shells                  ...   22
 # of contracted aux-basis functions     ...   62
 Highest angular momentum                ...    4
 Maximum contraction depth               ...    7
Ratio of auxiliary to basis functions    ...  1.44
Integral package used                  ... LIBINT
 One Electron integrals                  ... done
 Ordering auxiliary basis shells         ... done
 Integral threshhold             Thresh  ...  2.500e-11
 Primitive cut-off               TCut    ...  2.500e-12
 Pre-screening matrix                    ... done
 Shell pair data                         ... 
 Ordering of the shell pairs             ... done (   0.000 sec) 153 of 153 pairs
 Determination of significant pairs      ... done (   0.000 sec)
 Creation of shell pair data             ... done (   0.000 sec)
 Storage of shell pair data              ... done (   0.000 sec)
 Shell pair data done in (   0.000 sec)
 Computing two index integrals           ... done
 Cholesky decomposition of the V-matrix  ... done


Timings:
 Total evaluation time                   ...   0.135 sec (  0.002 min)
 One electron matrix time                ...   0.005 sec (  0.000 min) =  3.8%
 Schwartz matrix evaluation time         ...   0.103 sec (  0.002 min) = 76.5%
 Two index repulsion integral time       ...   0.000 sec (  0.000 min) =  0.3%
 Cholesky decomposition of V             ...   0.000 sec (  0.000 min) =  0.2%
 Three index repulsion integral time     ...   0.000 sec (  0.000 min) =  0.0%

-------------------------------------------------------------------------------
                                 ORCA SCF
-------------------------------------------------------------------------------

------------
SCF SETTINGS
------------
Hamiltonian:
 Density Functional     Method          .... DFT(GTOs)
 Exchange Functional    Exchange        .... Slater
   X-Alpha parameter    XAlpha          ....  0.666667
 Correlation Functional Correlation     .... VWN-5
 Gradients option       PostSCFGGA      .... off
   Density functional embedding theory  .... OFF
 RI-approximation to the Coulomb term is turned on
   Number of auxiliary basis functions  .... 62


General Settings:
 Integral files         IntName         .... ./PH2N_VWN/input
 Hartree-Fock type      HFTyp           .... RHF
 Total Charge           Charge          ....   -2
 Multiplicity           Mult            ....    1
 Number of Electrons    NEL             ....   18
 Basis Dimension        Dim             ....   43
 Nuclear Repulsion      ENuc            ....      5.0565568227 Eh

Convergence Acceleration:
 DIIS                   CNVDIIS         .... on
   Start iteration      DIISMaxIt       ....    12
   Startup error        DIISStart       ....  0.200000
   # of expansion vecs  DIISMaxEq       ....     5
   Bias factor          DIISBfac        ....   1.050
   Max. coefficient     DIISMaxC        ....  10.000
 Newton-Raphson         CNVNR           .... off
 SOSCF                  CNVSOSCF        .... on
   Start iteration      SOSCFMaxIt      ....   150
   Startup grad/error   SOSCFStart      ....  0.003300
 Level Shifting         CNVShift        .... on
   Level shift para.    LevelShift      ....    0.2500
   Turn off err/grad.   ShiftErr        ....    0.0010
 Zerner damping         CNVZerner       .... off
 Static damping         CNVDamp         .... on
   Fraction old density DampFac         ....    0.7000
   Max. Damping (<1)    DampMax         ....    0.9800
   Min. Damping (>=0)   DampMin         ....    0.0000
   Turn off err/grad.   DampErr         ....    0.1000
 Fernandez-Rico         CNVRico         .... off

SCF Procedure:
 Maximum # iterations   MaxIter         ....   125
 SCF integral mode      SCFMode         .... Direct
   Integral package                     .... LIBINT
 Reset frequency        DirectResetFreq ....    20
 Integral Threshold     Thresh          ....  2.500e-11 Eh
 Primitive CutOff       TCut            ....  2.500e-12 Eh

Convergence Tolerance:
 Convergence Check Mode ConvCheckMode   .... Total+1el-Energy
 Convergence forced     ConvForced      .... 0
 Energy Change          TolE            ....  1.000e-08 Eh
 1-El. energy change                    ....  1.000e-05 Eh
 Orbital Gradient       TolG            ....  1.000e-05
 Orbital Rotation angle TolX            ....  1.000e-05
 DIIS Error             TolErr          ....  5.000e-07


Diagonalization of the overlap matrix:
Smallest eigenvalue                        ... 2.949e-02
Time for diagonalization                   ...    0.001 sec
Threshold for overlap eigenvalues          ... 1.000e-08
Number of eigenvalues below threshold      ... 0
Time for construction of square roots      ...    0.000 sec
Total time needed                          ...    0.001 sec

-------------------
DFT GRID GENERATION
-------------------

General Integration Accuracy     IntAcc      ...  4.340
Radial Grid Type                 RadialGrid  ... Gauss-Chebyshev
Angular Grid (max. acc.)         AngularGrid ... Lebedev-110
Angular grid pruning method      GridPruning ... 3 (G Style)
Weight generation scheme         WeightScheme... Becke
Basis function cutoff            BFCut       ...    1.0000e-11
Integration weight cutoff        WCut        ...    1.0000e-14
Grids for H and He will be reduced by one unit

# of grid points (after initial pruning)     ...   2600 (   0.0 sec)
# of grid points (after weights+screening)   ...   2577 (   0.0 sec)
nearest neighbour list constructed           ...    0.0 sec
Grid point re-assignment to atoms done       ...    0.0 sec
Grid point division into batches done        ...    0.0 sec
Reduced shell lists constructed in    0.0 sec

Total number of grid points                  ...     2577
Total number of batches                      ...       41
Average number of points per batch           ...       62
Average number of grid points per atom       ...     1288
Average number of shells per batch           ...    14.31 (84.17%)
Average number of basis functions per batch  ...    38.17 (88.76%)
Average number of large shells per batch     ...    13.40 (93.68%)
Average number of large basis fcns per batch ...    35.79 (93.76%)
Maximum spatial batch extension              ...  18.23, 32.81, 32.81 au
Average spatial batch extension              ...   6.05,  8.49,  8.72 au

Time for grid setup =    0.012 sec

------------------------------
INITIAL GUESS: MODEL POTENTIAL
------------------------------
Loading Hartree-Fock densities                     ... done
Calculating cut-offs                               ... done
Setting up the integral package                    ... done
Initializing the effective Hamiltonian             ... done
Starting the Coulomb interaction                   ... done (   0.0 sec)
Reading the grid                                   ... done
Mapping shells                                     ... done
Starting the XC term evaluation                    ... done (   0.0 sec)
  promolecular density results
     # of electrons  =     15.996772472
     EX              =    -20.984582834
     EC              =     -1.192706472
     EX+EC           =    -22.177289305
Transforming the Hamiltonian                       ... done (   0.0 sec)
Diagonalizing the Hamiltonian                      ... done (   0.0 sec)
Back transforming the eigenvectors                 ... done (   0.0 sec)
Now organizing SCF variables                       ... done
                      ------------------
                      INITIAL GUESS DONE (   0.1 sec)
                      ------------------
--------------
SCF ITERATIONS
--------------
ITER       Energy         Delta-E        Max-DP      RMS-DP      [F,P]     Damp
               ***  Starting incremental Fock matrix formation  ***
  0   -340.2108386296   0.000000000000 0.27564413  0.01380383  0.2605419 0.7000
  1   -340.3156704073  -0.104831777659 0.25276328  0.01159396  0.1365113 0.7000
                               ***Turning on DIIS***
  2   -340.3557536220  -0.040083214759 0.43305817  0.01952940  0.0424780 0.0000
  3   -340.3836052441  -0.027851622071 0.04655140  0.00225513  0.1101155 0.7000
  4   -340.3938609749  -0.010255730792 0.18120077  0.00847799  0.0921156 0.0000
  5   -340.4181204033  -0.024259428383 0.03796913  0.00165513  0.0233289 0.0000
  6   -340.4193437825  -0.001223379189 0.01948836  0.00083917  0.0104862 0.0000
  7   -340.4196183413  -0.000274558841 0.00753844  0.00032442  0.0038527 0.0000
                      *** Initiating the SOSCF procedure ***
                           *** Shutting down DIIS ***
                      *** Re-Reading the Fockian *** 
                      *** Removing any level shift *** 
ITER      Energy       Delta-E        Grad      Rot      Max-DP    RMS-DP
  8   -340.41965628  -0.0000379350  0.000436  0.000436  0.003017  0.000134
               *** Restarting incremental Fock matrix formation ***
  9   -340.41966222  -0.0000059424  0.000358  0.001089  0.004227  0.000198
 10   -340.41966068   0.0000015408  0.000528  0.000585  0.002200  0.000108
 11   -340.41966329  -0.0000026170  0.000032  0.000072  0.000150  0.000009
 12   -340.41966329   0.0000000057  0.000036  0.000055  0.000078  0.000005
 13   -340.41966330  -0.0000000135  0.000009  0.000007  0.000027  0.000001
 14   -340.41966331  -0.0000000032  0.000005  0.000002  0.000008  0.000000
                 **** Energy Check signals convergence ****
              ***Rediagonalizing the Fockian in SOSCF/NRSCF***

               *****************************************************
               *                     SUCCESS                       *
               *           SCF CONVERGED AFTER  15 CYCLES          *
               *****************************************************

Setting up the final grid:

General Integration Accuracy     IntAcc      ...  4.670
Radial Grid Type                 RadialGrid  ... Gauss-Chebyshev
Angular Grid (max. acc.)         AngularGrid ... Lebedev-302
Angular grid pruning method      GridPruning ... 3 (G Style)
Weight generation scheme         WeightScheme... Becke
Basis function cutoff            BFCut       ...    1.0000e-11
Integration weight cutoff        WCut        ...    1.0000e-14
Grids for H and He will be reduced by one unit

# of grid points (after initial pruning)     ...  10240 (   0.0 sec)
# of grid points (after weights+screening)   ...  10215 (   0.0 sec)
nearest neighbour list constructed           ...    0.0 sec
Grid point re-assignment to atoms done       ...    0.0 sec
Grid point division into batches done        ...    0.1 sec
Reduced shell lists constructed in    0.1 sec

Total number of grid points                  ...    10215
Total number of batches                      ...      161
Average number of points per batch           ...       63
Average number of grid points per atom       ...     5108
Average number of shells per batch           ...    13.14 (77.31%)
Average number of basis functions per batch  ...    34.80 (80.92%)
Average number of large shells per batch     ...    12.08 (91.92%)
Average number of large basis fcns per batch ...    32.41 (93.15%)
Maximum spatial batch extension              ...  19.91, 25.33, 25.33 au
Average spatial batch extension              ...   4.10,  4.86,  4.72 au

Final grid set up in    0.1 sec
Final integration                            ... done (   0.0 sec)
Change in XC energy                          ...    -0.001629152
Integrated number of electrons               ...    17.999999823
Previous integrated no of electrons          ...    17.995905681

----------------
TOTAL SCF ENERGY
----------------

Total Energy       :         -340.42129246 Eh           -9263.33431 eV

Components:
Nuclear Repulsion  :            5.05655682 Eh             137.59591 eV
Electronic Energy  :         -345.47784928 Eh           -9400.93021 eV
One Electron Energy:         -491.22579495 Eh          -13366.93344 eV
Two Electron Energy:          145.74794567 Eh            3966.00323 eV

Virial components:
Potential Energy   :         -681.23365917 Eh          -18537.31028 eV
Kinetic Energy     :          340.81236672 Eh            9273.97598 eV
Virial Ratio       :            1.99885252


DFT components:
N(Alpha)           :        8.999999911605 electrons
N(Beta)            :        8.999999911605 electrons
N(Total)           :       17.999999823209 electrons
E(X)               :      -21.355290189347 Eh       
E(C)               :       -1.274185243493 Eh       
E(XC)              :      -22.629475432840 Eh       
DFET-embed. en.    :        0.000000000000 Eh       

---------------
SCF CONVERGENCE
---------------

  Last Energy change         ...    2.0483e-09  Tolerance :   1.0000e-08
  Last MAX-Density change    ...    3.0721e-07  Tolerance :   1.0000e-07
  Last RMS-Density change    ...    1.3913e-08  Tolerance :   5.0000e-09
  Last Orbital Gradient      ...    3.4446e-08  Tolerance :   1.0000e-05
  Last Orbital Rotation      ...    1.2539e-07  Tolerance :   1.0000e-05

             **** THE GBW FILE WAS UPDATED (./PH2N_VWN/input.gbw) ****
             **** DENSITY FILE WAS UPDATED (./PH2N_VWN/input.scfp) ****
             **** ENERGY FILE WAS UPDATED (./PH2N_VWN/input.en.tmp) ****
             **** THE GBW FILE WAS UPDATED (./PH2N_VWN/input.gbw) ****
             **** DENSITY FILE WAS UPDATED (./PH2N_VWN/input.scfp) ****
----------------
ORBITAL ENERGIES
----------------

  NO   OCC          E(Eh)            E(eV) 
   0   2.0000     -75.440913     -2052.8516 
   1   2.0000      -5.718890      -155.6189 
   2   2.0000      -3.968130      -107.9783 
   3   2.0000      -3.965662      -107.9112 
   4   2.0000      -3.965660      -107.9111 
   5   2.0000       0.016658         0.4533 
   6   2.0000       0.210293         5.7224 
   7   2.0000       0.326111         8.8739 
   8   2.0000       0.326126         8.8743 
   9   0.0000       0.418085        11.3767 
  10   0.0000       0.578445        15.7403 
  11   0.0000       0.654473        17.8091 
  12   0.0000       0.654494        17.8097 
  13   0.0000       0.677612        18.4387 
  14   0.0000       0.746342        20.3090 
  15   0.0000       0.746377        20.3100 
  16   0.0000       0.773426        21.0460 
  17   0.0000       0.775380        21.0992 
  18   0.0000       0.839365        22.8403 
  19   0.0000       0.964556        26.2469 
  20   0.0000       1.639123        44.6028 
  21   0.0000       1.639141        44.6033 
  22   0.0000       1.657334        45.0983 
  23   0.0000       1.680060        45.7168 
  24   0.0000       1.681286        45.7501 
  25   0.0000       1.681831        45.7649 
  26   0.0000       1.681924        45.7675 
  27   0.0000       1.822858        49.6025 
  28   0.0000       1.824142        49.6374 
  29   0.0000       1.839691        50.0605 
  30   0.0000       1.839711        50.0611 
  31   0.0000       1.909349        51.9560 
  32   0.0000       1.923694        52.3464 
  33   0.0000       1.923727        52.3473 
  34   0.0000       1.994275        54.2670 
  35   0.0000       2.328255        63.3550 
  36   0.0000       2.328299        63.3562 
  37   0.0000       2.749463        74.8167 
  38   0.0000       3.029874        82.4471 
  39   0.0000       7.583759       206.3646 
  40   0.0000       7.583782       206.3652 
  41   0.0000       7.620125       207.3541 
  42   0.0000      13.401067       364.6616 

                    ********************************
                    * MULLIKEN POPULATION ANALYSIS *
                    ********************************

-----------------------
MULLIKEN ATOMIC CHARGES
-----------------------
   0 P :   -1.746873
   1 H :   -0.253127
Sum of atomic charges:   -2.0000000

--------------------------------
MULLIKEN REDUCED ORBITAL CHARGES
--------------------------------
  0 P s       :     5.881232  s :     5.881232
      pz      :     3.993579  p :    10.838530
      px      :     2.850691
      py      :     3.994260
      dz2     :     0.005395  d :     0.023246
      dxz     :     0.000831
      dyz     :     0.000001
      dx2y2   :     0.016219
      dxy     :     0.000800
      f0      :     0.000102  f :     0.003865
      f+1     :     0.001256
      f-1     :     0.000013
      f+2     :     0.000156
      f-2     :     0.000001
      f+3     :     0.002102
      f-3     :     0.000235
  1 H s       :     1.239489  s :     1.239489
      pz      :     0.004451  p :     0.013638
      px      :     0.004733
      py      :     0.004454


                     *******************************
                     * LOEWDIN POPULATION ANALYSIS *
                     *******************************

----------------------
LOEWDIN ATOMIC CHARGES
----------------------
   0 P :   -1.843024
   1 H :   -0.156976

-------------------------------
LOEWDIN REDUCED ORBITAL CHARGES
-------------------------------
  0 P s       :     5.769161  s :     5.769161
      pz      :     3.987102  p :    11.009507
      px      :     3.034757
      py      :     3.987648
      dz2     :     0.013586  d :     0.055693
      dxz     :     0.000672
      dyz     :     0.000001
      dx2y2   :     0.040848
      dxy     :     0.000586
      f0      :     0.000057  f :     0.008663
      f+1     :     0.003142
      f-1     :     0.000006
      f+2     :     0.000087
      f-2     :     0.000000
      f+3     :     0.005259
      f-3     :     0.000111
  1 H s       :     1.111712  s :     1.111712
      pz      :     0.011498  p :     0.045264
      px      :     0.022274
      py      :     0.011492


                      *****************************
                      * MAYER POPULATION ANALYSIS *
                      *****************************

  NA   - Mulliken gross atomic population
  ZA   - Total nuclear charge
  QA   - Mulliken gross atomic charge
  VA   - Mayer's total valence
  BVA  - Mayer's bonded valence
  FA   - Mayer's free valence

  ATOM       NA         ZA         QA         VA         BVA        FA
  0 P     16.7469    15.0000    -1.7469     0.9291     0.9291    -0.0000
  1 H      1.2531     1.0000    -0.2531     0.9291     0.9291    -0.0000

  Mayer bond orders larger than 0.100000
B(  0-P ,  1-H ) :   0.9291 

-------
TIMINGS
-------

Total SCF time: 0 days 0 hours 0 min 2 sec 

Total time                  ....       2.113 sec
Sum of individual times     ....       1.999 sec  ( 94.6%)

Fock matrix formation       ....       1.744 sec  ( 82.6%)
  Split-RI-J                ....       1.581 sec  ( 90.6% of F)
  XC integration            ....       0.153 sec  (  8.8% of F)
    Basis function eval.    ....       0.059 sec  ( 38.5% of XC)
    Density eval.           ....       0.029 sec  ( 19.0% of XC)
    XC-Functional eval.     ....       0.030 sec  ( 19.6% of XC)
    XC-Potential eval.      ....       0.022 sec  ( 14.4% of XC)
Diagonalization             ....       0.004 sec  (  0.2%)
Density matrix formation    ....       0.000 sec  (  0.0%)
Population analysis         ....       0.001 sec  (  0.0%)
Initial guess               ....       0.118 sec  (  5.6%)
Orbital Transformation      ....       0.000 sec  (  0.0%)
Orbital Orthonormalization  ....       0.000 sec  (  0.0%)
DIIS solution               ....       0.002 sec  (  0.1%)
SOSCF solution              ....       0.040 sec  (  1.9%)
Grid generation             ....       0.090 sec  (  4.3%)

-------------------------   --------------------
FINAL SINGLE POINT ENERGY      -340.421292456356
-------------------------   --------------------

------------------------------------------------------------------------------
                         ORCA SCF GRADIENT CALCULATION
------------------------------------------------------------------------------

Gradient of the Kohn-Sham DFT energy:
Kohn-Sham wavefunction type      ... RKS
Hartree-Fock exchange scaling    ...    0.000
Number of operators              ...    1
Number of atoms                  ...    2
Basis set dimensions             ...   43
Integral neglect threshold       ... 2.5e-11
Integral primitive cutoff        ... 2.5e-12

Nuclear repulsion gradient       ... done
One Electron Gradient            ... done
Pre-screening matrix             ... done
RI-J gradient                    ... done
Exchange-correlation gradient    ... done

------------------
CARTESIAN GRADIENT
------------------

   1   P   :   -0.018555862    0.000191419    0.000369680
   2   H   :    0.018555862   -0.000191419   -0.000369680

Difference to translation invariance:
           :    0.0000000000    0.0000000000    0.0000000000

Norm of the cartesian gradient     ...    0.0262485545
RMS gradient                       ...    0.0107159275
MAX gradient                       ...    0.0185558616

-------
TIMINGS
-------

Total SCF gradient time            ...        0.354 sec

One electron gradient       ....       0.002 sec  (  0.7%)
Prescreening matrices       ....       0.051 sec  ( 14.4%)
RI-J Coulomb gradient       ....       0.093 sec  ( 26.2%)
XC gradient                 ....       0.055 sec  ( 15.5%)
------------------------------------------------------------------------------
                         ORCA GEOMETRY RELAXATION STEP
------------------------------------------------------------------------------

Reading the OPT-File                    .... done
Getting information on internals        .... done
Copying old internal coords+grads       .... done
Making the new internal coordinates     .... (new redundants).... done
Validating the new internal coordinates .... (new redundants).... done
Calculating the B-matrix                .... done
Calculating the G,G- and P matrices     .... done
Transforming gradient to internals      .... done
Projecting the internal gradient        .... done
Number of atoms                         ....   2
Number of internal coordinates          ....   1
Current Energy                          ....  -340.421292456 Eh
Current gradient norm                   ....     0.026248554 Eh/bohr
Maximum allowed component of the step   ....  0.300
Current trust radius                    ....  0.300
Evaluating the initial hessian          ....  (Almloef) done
Projecting the Hessian                  .... done
Forming the augmented Hessian           .... done
Diagonalizing the augmented Hessian     .... done
Last element of RFO vector              ....  0.996093532
Lowest eigenvalues of augmented Hessian:
 -0.001645348
Length of the computed step             ....  0.088650761
The final length of the internal step   ....  0.088650761
Converting the step to cartesian space:
 Initial RMS(Int)=    0.0886507605
Transforming coordinates:
 Iter   0:  RMS(Cart)=    0.0255912702 RMS(Int)=    0.0886507605
 Iter   1:  RMS(Cart)=    0.0000000000 RMS(Int)=    0.0000000000
done
Storing new coordinates                 .... done

                                .--------------------.
          ----------------------|Geometry convergence|-------------------------
          Item                value                   Tolerance       Converged
          ---------------------------------------------------------------------
          RMS gradient        0.0185598815            0.0001000000      NO
          MAX gradient        0.0185598815            0.0003000000      NO
          RMS step            0.0886507605            0.0020000000      NO
          MAX step            0.0886507605            0.0040000000      NO
          ........................................................
          Max(Bonds)      0.0469      Max(Angles)    0.00
          Max(Dihed)        0.00      Max(Improp)    0.00
          ---------------------------------------------------------------------

The optimization has not yet converged - more geometry cycles are needed


    ---------------------------------------------------------------------------
                         Redundant Internal Coordinates
                            (Angstroem and degrees)

        Definition                    Value    dE/dq     Step     New-Value
    ----------------------------------------------------------------------------
     1. B(H   1,P   0)                1.5698  0.018560 -0.0469    1.5229   
    ----------------------------------------------------------------------------

         *************************************************************
         *                GEOMETRY OPTIMIZATION CYCLE   2            *
         *************************************************************
---------------------------------
CARTESIAN COORDINATES (ANGSTROEM)
---------------------------------
  P     -1.373026    0.534289   -0.039889
  H      0.149116    0.512706   -0.081518

----------------------------
CARTESIAN COORDINATES (A.U.)
----------------------------
  NO LB      ZA    FRAG     MASS         X           Y           Z
   0 P    15.0000    0    30.974   -2.594642    1.009661   -0.075380
   1 H     1.0000    0     1.008    0.281788    0.968874   -0.154047

--------------------------------
INTERNAL COORDINATES (ANGSTROEM)
--------------------------------
 P      0   0   0     0.000000000000     0.00000000     0.00000000
 H      1   0   0     1.522863361993     0.00000000     0.00000000

---------------------------
INTERNAL COORDINATES (A.U.)
---------------------------
 P      0   0   0     0.000000000000     0.00000000     0.00000000
 H      1   0   0     2.877794693550     0.00000000     0.00000000

 One Electron integrals                  ... done
 Pre-screening matrix                    ... done

Diagonalization of the overlap matrix:
Smallest eigenvalue                        ... 2.765e-02
Time for diagonalization                   ...    0.001 sec
Threshold for overlap eigenvalues          ... 1.000e-08
Number of eigenvalues below threshold      ... 0
Time for construction of square roots      ...    0.000 sec
Total time needed                          ...    0.001 sec

-------------------
DFT GRID GENERATION
-------------------

General Integration Accuracy     IntAcc      ...  4.340
Radial Grid Type                 RadialGrid  ... Gauss-Chebyshev
Angular Grid (max. acc.)         AngularGrid ... Lebedev-110
Angular grid pruning method      GridPruning ... 3 (G Style)
Weight generation scheme         WeightScheme... Becke
Basis function cutoff            BFCut       ...    1.0000e-11
Integration weight cutoff        WCut        ...    1.0000e-14
Grids for H and He will be reduced by one unit

# of grid points (after initial pruning)     ...   2600 (   0.0 sec)
# of grid points (after weights+screening)   ...   2577 (   0.0 sec)
nearest neighbour list constructed           ...    0.0 sec
Grid point re-assignment to atoms done       ...    0.0 sec
Grid point division into batches done        ...    0.0 sec
Reduced shell lists constructed in    0.0 sec

Total number of grid points                  ...     2577
Total number of batches                      ...       41
Average number of points per batch           ...       62
Average number of grid points per atom       ...     1288
Average number of shells per batch           ...    14.33 (84.31%)
Average number of basis functions per batch  ...    38.24 (88.93%)
Average number of large shells per batch     ...    13.52 (94.35%)
Average number of large basis fcns per batch ...    36.14 (94.52%)
Maximum spatial batch extension              ...  18.23, 32.81, 32.81 au
Average spatial batch extension              ...   6.13,  8.48,  8.74 au

Time for grid setup =    0.011 sec

--------------
SCF ITERATIONS
--------------
ITER       Energy         Delta-E        Max-DP      RMS-DP      [F,P]     Damp
               ***  Starting incremental Fock matrix formation  ***
  0   -340.4207890144   0.000000000000 0.00470472  0.00017587  0.0110928 0.7000
                      *** Initiating the SOSCF procedure ***
                      *** Re-Reading the Fockian *** 
                      *** Removing any level shift *** 
ITER      Energy       Delta-E        Grad      Rot      Max-DP    RMS-DP
  1   -340.42085207  -0.0000630557  0.001265  0.001265  0.018949  0.000688
               *** Restarting incremental Fock matrix formation ***
  2   -340.42098502  -0.0001329474  0.000690  0.003172  0.006408  0.000412
  3   -340.42097920   0.0000058205  0.001102  0.001256  0.003293  0.000182
  4   -340.42099499  -0.0000157914  0.000084  0.000091  0.000129  0.000009
  5   -340.42099502  -0.0000000287  0.000041  0.000026  0.000088  0.000004
  6   -340.42099502  -0.0000000024  0.000012  0.000027  0.000073  0.000004
  7   -340.42099502   0.0000000025  0.000010  0.000011  0.000038  0.000002
                  ***Gradient check signals convergence***
              ***Rediagonalizing the Fockian in SOSCF/NRSCF***

               *****************************************************
               *                     SUCCESS                       *
               *           SCF CONVERGED AFTER   8 CYCLES          *
               *****************************************************

Setting up the final grid:

General Integration Accuracy     IntAcc      ...  4.670
Radial Grid Type                 RadialGrid  ... Gauss-Chebyshev
Angular Grid (max. acc.)         AngularGrid ... Lebedev-302
Angular grid pruning method      GridPruning ... 3 (G Style)
Weight generation scheme         WeightScheme... Becke
Basis function cutoff            BFCut       ...    1.0000e-11
Integration weight cutoff        WCut        ...    1.0000e-14
Grids for H and He will be reduced by one unit

# of grid points (after initial pruning)     ...  10240 (   0.0 sec)
# of grid points (after weights+screening)   ...  10215 (   0.0 sec)
nearest neighbour list constructed           ...    0.0 sec
Grid point re-assignment to atoms done       ...    0.0 sec
Grid point division into batches done        ...    0.1 sec
Reduced shell lists constructed in    0.1 sec

Total number of grid points                  ...    10215
Total number of batches                      ...      160
Average number of points per batch           ...       63
Average number of grid points per atom       ...     5108
Average number of shells per batch           ...    13.13 (77.24%)
Average number of basis functions per batch  ...    34.77 (80.86%)
Average number of large shells per batch     ...    12.09 (92.10%)
Average number of large basis fcns per batch ...    32.44 (93.30%)
Maximum spatial batch extension              ...  19.91, 25.33, 25.33 au
Average spatial batch extension              ...   4.01,  4.87,  4.77 au

Final grid set up in    0.1 sec
Final integration                            ... done (   0.0 sec)
Change in XC energy                          ...    -0.001604895
Integrated number of electrons               ...    18.000000887
Previous integrated no of electrons          ...    17.997594830
Total Energy       :         -340.42259992 Eh           -9263.36988 eV
  Last Energy change         ...   -3.2801e-09  Tolerance :   1.0000e-08
  Last MAX-Density change    ...    1.3706e-06  Tolerance :   1.0000e-07
             **** THE GBW FILE WAS UPDATED (./PH2N_VWN/input.gbw) ****
             **** DENSITY FILE WAS UPDATED (./PH2N_VWN/input.scfp) ****
             **** ENERGY FILE WAS UPDATED (./PH2N_VWN/input.en.tmp) ****
             **** THE GBW FILE WAS UPDATED (./PH2N_VWN/input.gbw) ****
             **** DENSITY FILE WAS UPDATED (./PH2N_VWN/input.scfp) ****
Total SCF time: 0 days 0 hours 0 min 1 sec 

-------------------------   --------------------
FINAL SINGLE POINT ENERGY      -340.422599915077
-------------------------   --------------------

------------------------------------------------------------------------------
                         ORCA SCF GRADIENT CALCULATION
------------------------------------------------------------------------------

Gradient of the Kohn-Sham DFT energy:
Kohn-Sham wavefunction type      ... RKS
Hartree-Fock exchange scaling    ...    0.000
Number of operators              ...    1
Number of atoms                  ...    2
Basis set dimensions             ...   43
Integral neglect threshold       ... 2.5e-11
Integral primitive cutoff        ... 2.5e-12

Nuclear repulsion gradient       ... done
One Electron Gradient            ... done
Pre-screening matrix             ... done
RI-J gradient                    ... done
Exchange-correlation gradient    ... done

------------------
CARTESIAN GRADIENT
------------------

   1   P   :   -0.009780916    0.000056843    0.000109900
   2   H   :    0.009780916   -0.000056843   -0.000109900

Difference to translation invariance:
           :    0.0000000000    0.0000000000    0.0000000000

Norm of the cartesian gradient     ...    0.0138334113
RMS gradient                       ...    0.0056474665
MAX gradient                       ...    0.0097809164

-------
TIMINGS
-------

Total SCF gradient time            ...        0.357 sec

One electron gradient       ....       0.003 sec  (  0.8%)
Prescreening matrices       ....       0.052 sec  ( 14.7%)
RI-J Coulomb gradient       ....       0.093 sec  ( 26.1%)
XC gradient                 ....       0.055 sec  ( 15.5%)
------------------------------------------------------------------------------
                         ORCA GEOMETRY RELAXATION STEP
------------------------------------------------------------------------------

Reading the OPT-File                    .... done
Getting information on internals        .... done
Copying old internal coords+grads       .... done
Making the new internal coordinates     .... (new redundants).... done
Validating the new internal coordinates .... (new redundants).... done
Calculating the B-matrix                .... done
Calculating the G,G- and P matrices     .... done
Transforming gradient to internals      .... done
Projecting the internal gradient        .... done
Number of atoms                         ....   2
Number of internal coordinates          ....   1
Current Energy                          ....  -340.422599915 Eh
Current gradient norm                   ....     0.013833411 Eh/bohr
Maximum allowed component of the step   ....  0.300
Current trust radius                    ....  0.300
Updating the Hessian (BFGS)             .... done
Forming the augmented Hessian           .... done
Diagonalizing the augmented Hessian     .... done
Last element of RFO vector              ....  0.995251016
Lowest eigenvalues of augmented Hessian:
 -0.000956553
Length of the computed step             ....  0.097806221
The final length of the internal step   ....  0.097806221
Converting the step to cartesian space:
 Initial RMS(Int)=    0.0978062210
Transforming coordinates:
 Iter   0:  RMS(Cart)=    0.0282342240 RMS(Int)=    0.0978062210
 Iter   1:  RMS(Cart)=    0.0000000000 RMS(Int)=    0.0000000000
done
Storing new coordinates                 .... done

                                .--------------------.
          ----------------------|Geometry convergence|-------------------------
          Item                value                   Tolerance       Converged
          ---------------------------------------------------------------------
          Energy change      -0.0013074587            0.0000050000      NO
          RMS gradient        0.0097800884            0.0001000000      NO
          MAX gradient        0.0097800884            0.0003000000      NO
          RMS step            0.0978062210            0.0020000000      NO
          MAX step            0.0978062210            0.0040000000      NO
          ........................................................
          Max(Bonds)      0.0518      Max(Angles)    0.00
          Max(Dihed)        0.00      Max(Improp)    0.00
          ---------------------------------------------------------------------

The optimization has not yet converged - more geometry cycles are needed


    ---------------------------------------------------------------------------
                         Redundant Internal Coordinates
                            (Angstroem and degrees)

        Definition                    Value    dE/dq     Step     New-Value
    ----------------------------------------------------------------------------
     1. B(H   1,P   0)                1.5229  0.009780 -0.0518    1.4711   
    ----------------------------------------------------------------------------

         *************************************************************
         *                GEOMETRY OPTIMIZATION CYCLE   3            *
         *************************************************************
---------------------------------
CARTESIAN COORDINATES (ANGSTROEM)
---------------------------------
  P     -1.347159    0.533923   -0.040597
  H      0.123250    0.513073   -0.080811

----------------------------
CARTESIAN COORDINATES (A.U.)
----------------------------
  NO LB      ZA    FRAG     MASS         X           Y           Z
   0 P    15.0000    0    30.974   -2.545762    1.008968   -0.076717
   1 H     1.0000    0     1.008    0.232908    0.969567   -0.152710

--------------------------------
INTERNAL COORDINATES (ANGSTROEM)
--------------------------------
 P      0   0   0     0.000000000000     0.00000000     0.00000000
 H      1   0   0     1.471106538987     0.00000000     0.00000000

---------------------------
INTERNAL COORDINATES (A.U.)
---------------------------
 P      0   0   0     0.000000000000     0.00000000     0.00000000
 H      1   0   0     2.779988472507     0.00000000     0.00000000

 One Electron integrals                  ... done
 Pre-screening matrix                    ... done

Diagonalization of the overlap matrix:
Smallest eigenvalue                        ... 2.451e-02
Time for diagonalization                   ...    0.001 sec
Threshold for overlap eigenvalues          ... 1.000e-08
Number of eigenvalues below threshold      ... 0
Time for construction of square roots      ...    0.000 sec
Total time needed                          ...    0.001 sec

-------------------
DFT GRID GENERATION
-------------------

General Integration Accuracy     IntAcc      ...  4.340
Radial Grid Type                 RadialGrid  ... Gauss-Chebyshev
Angular Grid (max. acc.)         AngularGrid ... Lebedev-110
Angular grid pruning method      GridPruning ... 3 (G Style)
Weight generation scheme         WeightScheme... Becke
Basis function cutoff            BFCut       ...    1.0000e-11
Integration weight cutoff        WCut        ...    1.0000e-14
Grids for H and He will be reduced by one unit

# of grid points (after initial pruning)     ...   2600 (   0.0 sec)
# of grid points (after weights+screening)   ...   2577 (   0.0 sec)
nearest neighbour list constructed           ...    0.0 sec
Grid point re-assignment to atoms done       ...    0.0 sec
Grid point division into batches done        ...    0.0 sec
Reduced shell lists constructed in    0.0 sec

Total number of grid points                  ...     2577
Total number of batches                      ...       41
Average number of points per batch           ...       62
Average number of grid points per atom       ...     1288
Average number of shells per batch           ...    14.43 (84.87%)
Average number of basis functions per batch  ...    38.33 (89.15%)
Average number of large shells per batch     ...    13.45 (93.23%)
Average number of large basis fcns per batch ...    36.02 (93.98%)
Maximum spatial batch extension              ...  18.23, 32.81, 32.81 au
Average spatial batch extension              ...   6.05,  8.50,  8.68 au

Time for grid setup =    0.011 sec

--------------
SCF ITERATIONS
--------------
ITER       Energy         Delta-E        Max-DP      RMS-DP      [F,P]     Damp
               ***  Starting incremental Fock matrix formation  ***
  0   -340.4212512059   0.000000000000 0.00519717  0.00020014  0.0132416 0.7000
                      *** Initiating the SOSCF procedure ***
                      *** Re-Reading the Fockian *** 
                      *** Removing any level shift *** 
ITER      Energy       Delta-E        Grad      Rot      Max-DP    RMS-DP
  1   -340.42133486  -0.0000836513  0.001429  0.001429  0.020878  0.000786
               *** Restarting incremental Fock matrix formation ***
  2   -340.42150602  -0.0001711628  0.000900  0.003757  0.008188  0.000506
  3   -340.42149707   0.0000089501  0.001343  0.001488  0.004088  0.000225
  4   -340.42152056  -0.0000234909  0.000102  0.000121  0.000252  0.000015
  5   -340.42152059  -0.0000000321  0.000059  0.000067  0.000253  0.000012
  6   -340.42152062  -0.0000000231  0.000022  0.000041  0.000123  0.000006
  7   -340.42152062  -0.0000000026  0.000017  0.000015  0.000038  0.000002
                  ***Gradient check signals convergence***
              ***Rediagonalizing the Fockian in SOSCF/NRSCF***

               *****************************************************
               *                     SUCCESS                       *
               *           SCF CONVERGED AFTER   8 CYCLES          *
               *****************************************************

Setting up the final grid:

General Integration Accuracy     IntAcc      ...  4.670
Radial Grid Type                 RadialGrid  ... Gauss-Chebyshev
Angular Grid (max. acc.)         AngularGrid ... Lebedev-302
Angular grid pruning method      GridPruning ... 3 (G Style)
Weight generation scheme         WeightScheme... Becke
Basis function cutoff            BFCut       ...    1.0000e-11
Integration weight cutoff        WCut        ...    1.0000e-14
Grids for H and He will be reduced by one unit

# of grid points (after initial pruning)     ...  10240 (   0.0 sec)
# of grid points (after weights+screening)   ...  10213 (   0.0 sec)
nearest neighbour list constructed           ...    0.0 sec
Grid point re-assignment to atoms done       ...    0.0 sec
Grid point division into batches done        ...    0.1 sec
Reduced shell lists constructed in    0.1 sec

Total number of grid points                  ...    10213
Total number of batches                      ...      160
Average number of points per batch           ...       63
Average number of grid points per atom       ...     5106
Average number of shells per batch           ...    13.16 (77.38%)
Average number of basis functions per batch  ...    34.84 (81.03%)
Average number of large shells per batch     ...    12.12 (92.12%)
Average number of large basis fcns per batch ...    32.44 (93.10%)
Maximum spatial batch extension              ...  19.91, 25.33, 25.33 au
Average spatial batch extension              ...   3.99,  4.87,  4.75 au

Final grid set up in    0.1 sec
Final integration                            ... done (   0.0 sec)
Change in XC energy                          ...    -0.001470473
Integrated number of electrons               ...    18.000000283
Previous integrated no of electrons          ...    17.999897336
Total Energy       :         -340.42299110 Eh           -9263.38053 eV
  Last Energy change         ...   -3.8152e-09  Tolerance :   1.0000e-08
  Last MAX-Density change    ...    3.0599e-06  Tolerance :   1.0000e-07
             **** THE GBW FILE WAS UPDATED (./PH2N_VWN/input.gbw) ****
             **** DENSITY FILE WAS UPDATED (./PH2N_VWN/input.scfp) ****
             **** ENERGY FILE WAS UPDATED (./PH2N_VWN/input.en.tmp) ****
             **** THE GBW FILE WAS UPDATED (./PH2N_VWN/input.gbw) ****
             **** DENSITY FILE WAS UPDATED (./PH2N_VWN/input.scfp) ****
Total SCF time: 0 days 0 hours 0 min 1 sec 

-------------------------   --------------------
FINAL SINGLE POINT ENERGY      -340.422991095598
-------------------------   --------------------

------------------------------------------------------------------------------
                         ORCA SCF GRADIENT CALCULATION
------------------------------------------------------------------------------

Gradient of the Kohn-Sham DFT energy:
Kohn-Sham wavefunction type      ... RKS
Hartree-Fock exchange scaling    ...    0.000
Number of operators              ...    1
Number of atoms                  ...    2
Basis set dimensions             ...   43
Integral neglect threshold       ... 2.5e-11
Integral primitive cutoff        ... 2.5e-12

Nuclear repulsion gradient       ... done
One Electron Gradient            ... done
Pre-screening matrix             ... done
RI-J gradient                    ... done
Exchange-correlation gradient    ... done

------------------
CARTESIAN GRADIENT
------------------

   1   P   :    0.003100318   -0.000133786   -0.000258067
   2   H   :   -0.003100318    0.000133786    0.000258067

Difference to translation invariance:
           :    0.0000000000   -0.0000000000    0.0000000000

Norm of the cartesian gradient     ...    0.0044037414
RMS gradient                       ...    0.0017978199
MAX gradient                       ...    0.0031003180

-------
TIMINGS
-------

Total SCF gradient time            ...        0.371 sec

One electron gradient       ....       0.003 sec  (  0.7%)
Prescreening matrices       ....       0.051 sec  ( 13.9%)
RI-J Coulomb gradient       ....       0.093 sec  ( 25.0%)
XC gradient                 ....       0.053 sec  ( 14.2%)
------------------------------------------------------------------------------
                         ORCA GEOMETRY RELAXATION STEP
------------------------------------------------------------------------------

Reading the OPT-File                    .... done
Getting information on internals        .... done
Copying old internal coords+grads       .... done
Making the new internal coordinates     .... (new redundants).... done
Validating the new internal coordinates .... (new redundants).... done
Calculating the B-matrix                .... done
Calculating the G,G- and P matrices     .... done
Transforming gradient to internals      .... done
Projecting the internal gradient        .... done
Number of atoms                         ....   2
Number of internal coordinates          ....   1
Current Energy                          ....  -340.422991096 Eh
Current gradient norm                   ....     0.004403741 Eh/bohr
Maximum allowed component of the step   ....  0.300
Current trust radius                    ....  0.300
Updating the Hessian (BFGS)             .... done
Forming the augmented Hessian           .... done
Diagonalizing the augmented Hessian     .... done
Last element of RFO vector              ....  0.999722296
Lowest eigenvalues of augmented Hessian:
 -0.000073257
Length of the computed step             ....  0.023571990
The final length of the internal step   ....  0.023571990
Converting the step to cartesian space:
 Initial RMS(Int)=    0.0235719897
Transforming coordinates:
 Iter   0:  RMS(Cart)=    0.0068046473 RMS(Int)=    0.0235719897
 Iter   1:  RMS(Cart)=    0.0000000000 RMS(Int)=    0.0000000000
done
Storing new coordinates                 .... done

                                .--------------------.
          ----------------------|Geometry convergence|-------------------------
          Item                value                   Tolerance       Converged
          ---------------------------------------------------------------------
          Energy change      -0.0003911805            0.0000050000      NO
          RMS gradient        0.0031077985            0.0001000000      NO
          MAX gradient        0.0031077985            0.0003000000      NO
          RMS step            0.0235719897            0.0020000000      NO
          MAX step            0.0235719897            0.0040000000      NO
          ........................................................
          Max(Bonds)      0.0125      Max(Angles)    0.00
          Max(Dihed)        0.00      Max(Improp)    0.00
          ---------------------------------------------------------------------

The optimization has not yet converged - more geometry cycles are needed


    ---------------------------------------------------------------------------
                         Redundant Internal Coordinates
                            (Angstroem and degrees)

        Definition                    Value    dE/dq     Step     New-Value
    ----------------------------------------------------------------------------
     1. B(H   1,P   0)                1.4711 -0.003108  0.0125    1.4836   
    ----------------------------------------------------------------------------

         *************************************************************
         *                GEOMETRY OPTIMIZATION CYCLE   4            *
         *************************************************************
---------------------------------
CARTESIAN COORDINATES (ANGSTROEM)
---------------------------------
  P     -1.353393    0.534011   -0.040426
  H      0.129484    0.512985   -0.080981

----------------------------
CARTESIAN COORDINATES (A.U.)
----------------------------
  NO LB      ZA    FRAG     MASS         X           Y           Z
   0 P    15.0000    0    30.974   -2.557543    1.009135   -0.076395
   1 H     1.0000    0     1.008    0.244688    0.969400   -0.153032

--------------------------------
INTERNAL COORDINATES (ANGSTROEM)
--------------------------------
 P      0   0   0     0.000000000000     0.00000000     0.00000000
 H      1   0   0     1.483580298689     0.00000000     0.00000000

---------------------------
INTERNAL COORDINATES (A.U.)
---------------------------
 P      0   0   0     0.000000000000     0.00000000     0.00000000
 H      1   0   0     2.803560462203     0.00000000     0.00000000

 One Electron integrals                  ... done
 Pre-screening matrix                    ... done

Diagonalization of the overlap matrix:
Smallest eigenvalue                        ... 2.527e-02
Time for diagonalization                   ...    0.001 sec
Threshold for overlap eigenvalues          ... 1.000e-08
Number of eigenvalues below threshold      ... 0
Time for construction of square roots      ...    0.000 sec
Total time needed                          ...    0.002 sec

-------------------
DFT GRID GENERATION
-------------------

General Integration Accuracy     IntAcc      ...  4.340
Radial Grid Type                 RadialGrid  ... Gauss-Chebyshev
Angular Grid (max. acc.)         AngularGrid ... Lebedev-110
Angular grid pruning method      GridPruning ... 3 (G Style)
Weight generation scheme         WeightScheme... Becke
Basis function cutoff            BFCut       ...    1.0000e-11
Integration weight cutoff        WCut        ...    1.0000e-14
Grids for H and He will be reduced by one unit

# of grid points (after initial pruning)     ...   2600 (   0.0 sec)
# of grid points (after weights+screening)   ...   2577 (   0.0 sec)
nearest neighbour list constructed           ...    0.0 sec
Grid point re-assignment to atoms done       ...    0.0 sec
Grid point division into batches done        ...    0.0 sec
Reduced shell lists constructed in    0.0 sec

Total number of grid points                  ...     2577
Total number of batches                      ...       41
Average number of points per batch           ...       62
Average number of grid points per atom       ...     1288
Average number of shells per batch           ...    14.36 (84.45%)
Average number of basis functions per batch  ...    38.26 (88.98%)
Average number of large shells per batch     ...    13.52 (94.20%)
Average number of large basis fcns per batch ...    36.14 (94.46%)
Maximum spatial batch extension              ...  18.23, 32.81, 32.81 au
Average spatial batch extension              ...   6.05,  8.46,  8.66 au

Time for grid setup =    0.023 sec

--------------
SCF ITERATIONS
--------------
ITER       Energy         Delta-E        Max-DP      RMS-DP      [F,P]     Damp
               ***  Starting incremental Fock matrix formation  ***
                      *** Initiating the SOSCF procedure ***
                      *** Re-Reading the Fockian *** 
                      *** Removing any level shift *** 
ITER      Energy       Delta-E        Grad      Rot      Max-DP    RMS-DP
  0   -340.42148523 -340.4214852262  0.001445  0.001445  0.004074  0.000161
               *** Restarting incremental Fock matrix formation ***
  1   -340.42149955  -0.0000143275  0.000400  0.001847  0.003898  0.000208
  2   -340.42149988  -0.0000003309  0.000341  0.000399  0.000823  0.000052
  3   -340.42150122  -0.0000013371  0.000051  0.000212  0.000682  0.000026
  4   -340.42150126  -0.0000000380  0.000018  0.000069  0.000187  0.000008
                  ***Gradient check signals convergence***
              ***Rediagonalizing the Fockian in SOSCF/NRSCF***

               *****************************************************
               *                     SUCCESS                       *
               *           SCF CONVERGED AFTER   5 CYCLES          *
               *****************************************************

Setting up the final grid:

General Integration Accuracy     IntAcc      ...  4.670
Radial Grid Type                 RadialGrid  ... Gauss-Chebyshev
Angular Grid (max. acc.)         AngularGrid ... Lebedev-302
Angular grid pruning method      GridPruning ... 3 (G Style)
Weight generation scheme         WeightScheme... Becke
Basis function cutoff            BFCut       ...    1.0000e-11
Integration weight cutoff        WCut        ...    1.0000e-14
Grids for H and He will be reduced by one unit

# of grid points (after initial pruning)     ...  10240 (   0.0 sec)
# of grid points (after weights+screening)   ...  10214 (   0.0 sec)
nearest neighbour list constructed           ...    0.0 sec
Grid point re-assignment to atoms done       ...    0.0 sec
Grid point division into batches done        ...    0.1 sec
Reduced shell lists constructed in    0.1 sec

Total number of grid points                  ...    10214
Total number of batches                      ...      160
Average number of points per batch           ...       63
Average number of grid points per atom       ...     5107
Average number of shells per batch           ...    13.16 (77.38%)
Average number of basis functions per batch  ...    34.88 (81.12%)
Average number of large shells per batch     ...    12.14 (92.26%)
Average number of large basis fcns per batch ...    32.51 (93.20%)
Maximum spatial batch extension              ...  19.91, 25.33, 25.33 au
Average spatial batch extension              ...   4.03,  4.85,  4.75 au

Final grid set up in    0.1 sec
Final integration                            ... done (   0.0 sec)
Change in XC energy                          ...    -0.001513882
Integrated number of electrons               ...    18.000000549
Previous integrated no of electrons          ...    17.999300113
Total Energy       :         -340.42301515 Eh           -9263.38118 eV
  Last Energy change         ...   -4.7619e-09  Tolerance :   1.0000e-08
  Last MAX-Density change    ...    1.2932e-05  Tolerance :   1.0000e-07
             **** THE GBW FILE WAS UPDATED (./PH2N_VWN/input.gbw) ****
             **** DENSITY FILE WAS UPDATED (./PH2N_VWN/input.scfp) ****
             **** ENERGY FILE WAS UPDATED (./PH2N_VWN/input.en.tmp) ****
             **** THE GBW FILE WAS UPDATED (./PH2N_VWN/input.gbw) ****
             **** DENSITY FILE WAS UPDATED (./PH2N_VWN/input.scfp) ****
Total SCF time: 0 days 0 hours 0 min 1 sec 

-------------------------   --------------------
FINAL SINGLE POINT ENERGY      -340.423015146503
-------------------------   --------------------

------------------------------------------------------------------------------
                         ORCA SCF GRADIENT CALCULATION
------------------------------------------------------------------------------

Gradient of the Kohn-Sham DFT energy:
Kohn-Sham wavefunction type      ... RKS
Hartree-Fock exchange scaling    ...    0.000
Number of operators              ...    1
Number of atoms                  ...    2
Basis set dimensions             ...   43
Integral neglect threshold       ... 2.5e-11
Integral primitive cutoff        ... 2.5e-12

Nuclear repulsion gradient       ... done
One Electron Gradient            ... done
Pre-screening matrix             ... done
RI-J gradient                    ... done
Exchange-correlation gradient    ... done

------------------
CARTESIAN GRADIENT
------------------

   1   P   :   -0.000350459   -0.000083264   -0.000160572
   2   H   :    0.000350459    0.000083264    0.000160572

Difference to translation invariance:
           :    0.0000000000   -0.0000000000    0.0000000000

Norm of the cartesian gradient     ...    0.0005577406
RMS gradient                       ...    0.0002276967
MAX gradient                       ...    0.0003504586

-------
TIMINGS
-------

Total SCF gradient time            ...        0.374 sec

One electron gradient       ....       0.003 sec  (  0.7%)
Prescreening matrices       ....       0.050 sec  ( 13.4%)
RI-J Coulomb gradient       ....       0.099 sec  ( 26.4%)
XC gradient                 ....       0.052 sec  ( 14.0%)
------------------------------------------------------------------------------
                         ORCA GEOMETRY RELAXATION STEP
------------------------------------------------------------------------------

Reading the OPT-File                    .... done
Getting information on internals        .... done
Copying old internal coords+grads       .... done
Making the new internal coordinates     .... (new redundants).... done
Validating the new internal coordinates .... (new redundants).... done
Calculating the B-matrix                .... done
Calculating the G,G- and P matrices     .... done
Transforming gradient to internals      .... done
Projecting the internal gradient        .... done
Number of atoms                         ....   2
Number of internal coordinates          ....   1
Current Energy                          ....  -340.423015147 Eh
Current gradient norm                   ....     0.000557741 Eh/bohr
Maximum allowed component of the step   ....  0.300
Current trust radius                    ....  0.300
Updating the Hessian (BFGS)             .... done
Forming the augmented Hessian           .... done
Diagonalizing the augmented Hessian     .... done
Last element of RFO vector              ....  0.999997230
Lowest eigenvalues of augmented Hessian:
 -0.000000811
Length of the computed step             ....  0.002353573
The final length of the internal step   ....  0.002353573
Converting the step to cartesian space:
 Initial RMS(Int)=    0.0023535729
Transforming coordinates:
 Iter   0:  RMS(Cart)=    0.0006794180 RMS(Int)=    0.0023535729
 Iter   1:  RMS(Cart)=    0.0000000000 RMS(Int)=    0.0000000000
done
Storing new coordinates                 .... done

                                .--------------------.
          ----------------------|Geometry convergence|-------------------------
          Item                value                   Tolerance       Converged
          ---------------------------------------------------------------------
          Energy change      -0.0000240509            0.0000050000      NO
          RMS gradient        0.0003447230            0.0001000000      NO
          MAX gradient        0.0003447230            0.0003000000      NO
          RMS step            0.0023535729            0.0020000000      NO
          MAX step            0.0023535729            0.0040000000      YES
          ........................................................
          Max(Bonds)      0.0012      Max(Angles)    0.00
          Max(Dihed)        0.00      Max(Improp)    0.00
          ---------------------------------------------------------------------

The optimization has not yet converged - more geometry cycles are needed


    ---------------------------------------------------------------------------
                         Redundant Internal Coordinates
                            (Angstroem and degrees)

        Definition                    Value    dE/dq     Step     New-Value
    ----------------------------------------------------------------------------
     1. B(H   1,P   0)                1.4836  0.000345 -0.0012    1.4823   
    ----------------------------------------------------------------------------

         *************************************************************
         *                GEOMETRY OPTIMIZATION CYCLE   5            *
         *************************************************************
---------------------------------
CARTESIAN COORDINATES (ANGSTROEM)
---------------------------------
  P     -1.352771    0.534002   -0.040443
  H      0.128861    0.512993   -0.080964

----------------------------
CARTESIAN COORDINATES (A.U.)
----------------------------
  NO LB      ZA    FRAG     MASS         X           Y           Z
   0 P    15.0000    0    30.974   -2.556366    1.009118   -0.076427
   1 H     1.0000    0     1.008    0.243512    0.969417   -0.153000

--------------------------------
INTERNAL COORDINATES (ANGSTROEM)
--------------------------------
 P      0   0   0     0.000000000000     0.00000000     0.00000000
 H      1   0   0     1.482334841527     0.00000000     0.00000000

---------------------------
INTERNAL COORDINATES (A.U.)
---------------------------
 P      0   0   0     0.000000000000     0.00000000     0.00000000
 H      1   0   0     2.801206889255     0.00000000     0.00000000

 One Electron integrals                  ... done
 Pre-screening matrix                    ... done

Diagonalization of the overlap matrix:
Smallest eigenvalue                        ... 2.519e-02
Time for diagonalization                   ...    0.001 sec
Threshold for overlap eigenvalues          ... 1.000e-08
Number of eigenvalues below threshold      ... 0
Time for construction of square roots      ...    0.000 sec
Total time needed                          ...    0.001 sec

-------------------
DFT GRID GENERATION
-------------------

General Integration Accuracy     IntAcc      ...  4.340
Radial Grid Type                 RadialGrid  ... Gauss-Chebyshev
Angular Grid (max. acc.)         AngularGrid ... Lebedev-110
Angular grid pruning method      GridPruning ... 3 (G Style)
Weight generation scheme         WeightScheme... Becke
Basis function cutoff            BFCut       ...    1.0000e-11
Integration weight cutoff        WCut        ...    1.0000e-14
Grids for H and He will be reduced by one unit

# of grid points (after initial pruning)     ...   2600 (   0.0 sec)
# of grid points (after weights+screening)   ...   2577 (   0.0 sec)
nearest neighbour list constructed           ...    0.0 sec
Grid point re-assignment to atoms done       ...    0.0 sec
Grid point division into batches done        ...    0.0 sec
Reduced shell lists constructed in    0.0 sec

Total number of grid points                  ...     2577
Total number of batches                      ...       41
Average number of points per batch           ...       62
Average number of grid points per atom       ...     1288
Average number of shells per batch           ...    14.36 (84.45%)
Average number of basis functions per batch  ...    38.26 (88.98%)
Average number of large shells per batch     ...    13.50 (94.03%)
Average number of large basis fcns per batch ...    36.12 (94.40%)
Maximum spatial batch extension              ...  18.23, 32.81, 32.81 au
Average spatial batch extension              ...   6.05,  8.47,  8.66 au

Time for grid setup =    0.010 sec

--------------
SCF ITERATIONS
--------------
ITER       Energy         Delta-E        Max-DP      RMS-DP      [F,P]     Damp
               ***  Starting incremental Fock matrix formation  ***
                      *** Initiating the SOSCF procedure ***
                      *** Re-Reading the Fockian *** 
                      *** Removing any level shift *** 
ITER      Energy       Delta-E        Grad      Rot      Max-DP    RMS-DP
  0   -340.42150635 -340.4215063536  0.000142  0.000142  0.000412  0.000016
               *** Restarting incremental Fock matrix formation ***
  1   -340.42150650  -0.0000001415  0.000039  0.000181  0.000382  0.000021
  2   -340.42150650  -0.0000000015  0.000033  0.000040  0.000089  0.000005
  3   -340.42150651  -0.0000000141  0.000005  0.000022  0.000070  0.000003
                  ***Gradient check signals convergence***
              ***Rediagonalizing the Fockian in SOSCF/NRSCF***

               *****************************************************
               *                     SUCCESS                       *
               *           SCF CONVERGED AFTER   4 CYCLES          *
               *****************************************************

Setting up the final grid:

General Integration Accuracy     IntAcc      ...  4.670
Radial Grid Type                 RadialGrid  ... Gauss-Chebyshev
Angular Grid (max. acc.)         AngularGrid ... Lebedev-302
Angular grid pruning method      GridPruning ... 3 (G Style)
Weight generation scheme         WeightScheme... Becke
Basis function cutoff            BFCut       ...    1.0000e-11
Integration weight cutoff        WCut        ...    1.0000e-14
Grids for H and He will be reduced by one unit

# of grid points (after initial pruning)     ...  10240 (   0.0 sec)
# of grid points (after weights+screening)   ...  10214 (   0.0 sec)
nearest neighbour list constructed           ...    0.0 sec
Grid point re-assignment to atoms done       ...    0.0 sec
Grid point division into batches done        ...    0.0 sec
Reduced shell lists constructed in    0.1 sec

Total number of grid points                  ...    10214
Total number of batches                      ...      160
Average number of points per batch           ...       63
Average number of grid points per atom       ...     5107
Average number of shells per batch           ...    13.17 (77.46%)
Average number of basis functions per batch  ...    34.88 (81.12%)
Average number of large shells per batch     ...    12.12 (92.08%)
Average number of large basis fcns per batch ...    32.47 (93.09%)
Maximum spatial batch extension              ...  19.91, 25.33, 25.33 au
Average spatial batch extension              ...   4.00,  4.86,  4.76 au

Final grid set up in    0.1 sec
Final integration                            ... done (   0.0 sec)
Change in XC energy                          ...    -0.001509833
Integrated number of electrons               ...    18.000000523
Previous integrated no of electrons          ...    17.999358581
Total Energy       :         -340.42301635 Eh           -9263.38122 eV
  Last Energy change         ...   -3.0496e-09  Tolerance :   1.0000e-08
  Last MAX-Density change    ...    2.0262e-05  Tolerance :   1.0000e-07
             **** THE GBW FILE WAS UPDATED (./PH2N_VWN/input.gbw) ****
             **** DENSITY FILE WAS UPDATED (./PH2N_VWN/input.scfp) ****
             **** ENERGY FILE WAS UPDATED (./PH2N_VWN/input.en.tmp) ****
             **** THE GBW FILE WAS UPDATED (./PH2N_VWN/input.gbw) ****
             **** DENSITY FILE WAS UPDATED (./PH2N_VWN/input.scfp) ****
Total SCF time: 0 days 0 hours 0 min 0 sec 

-------------------------   --------------------
FINAL SINGLE POINT ENERGY      -340.423016346382
-------------------------   --------------------

------------------------------------------------------------------------------
                         ORCA SCF GRADIENT CALCULATION
------------------------------------------------------------------------------

Gradient of the Kohn-Sham DFT energy:
Kohn-Sham wavefunction type      ... RKS
Hartree-Fock exchange scaling    ...    0.000
Number of operators              ...    1
Number of atoms                  ...    2
Basis set dimensions             ...   43
Integral neglect threshold       ... 2.5e-11
Integral primitive cutoff        ... 2.5e-12

Nuclear repulsion gradient       ... done
One Electron Gradient            ... done
Pre-screening matrix             ... done
RI-J gradient                    ... done
Exchange-correlation gradient    ... done

------------------
CARTESIAN GRADIENT
------------------

   1   P   :   -0.000014568   -0.000088181   -0.000170061
   2   H   :    0.000014568    0.000088181    0.000170061

Difference to translation invariance:
           :    0.0000000000   -0.0000000000    0.0000000000

Norm of the cartesian gradient     ...    0.0002716944
RMS gradient                       ...    0.0001109188
[...]
nearest neighbour list constructed           ...    0.0 sec
Grid point re-assignment to atoms done       ...    0.0 sec
Grid point division into batches done        ...    0.1 sec
Reduced shell lists constructed in    0.1 sec

Total number of grid points                  ...    10214
Total number of batches                      ...      160
Average number of points per batch           ...       63
Average number of grid points per atom       ...     5107
Average number of shells per batch           ...    13.17 (77.46%)
Average number of basis functions per batch  ...    34.86 (81.06%)
Average number of large shells per batch     ...    12.12 (92.08%)
Average number of large basis fcns per batch ...    32.47 (93.16%)
Maximum spatial batch extension              ...  19.91, 25.33, 25.33 au
Average spatial batch extension              ...   4.00,  4.86,  4.75 au

Final grid set up in    0.1 sec
Final integration                            ... done (   0.0 sec)
Change in XC energy                          ...    -0.001509732
Integrated number of electrons               ...    18.000000523
Previous integrated no of electrons          ...    17.999360051

----------------
TOTAL SCF ENERGY
----------------

Total Energy       :         -340.42301637 Eh           -9263.38122 eV

Components:
Nuclear Repulsion  :            5.35495073 Eh             145.71562 eV
Electronic Energy  :         -345.77796710 Eh           -9409.09683 eV
One Electron Energy:         -491.87064692 Eh          -13384.48076 eV
Two Electron Energy:          146.09267982 Eh            3975.38392 eV

Virial components:
Potential Energy   :         -681.29497108 Eh          -18538.97867 eV
Kinetic Energy     :          340.87195471 Eh            9275.59745 eV
Virial Ratio       :            1.99868297


DFT components:
N(Alpha)           :        9.000000261277 electrons
N(Beta)            :        9.000000261277 electrons
N(Total)           :       18.000000522555 electrons
E(X)               :      -21.372291372380 Eh       
E(C)               :       -1.275369448035 Eh       
E(XC)              :      -22.647660820415 Eh       
DFET-embed. en.    :        0.000000000000 Eh       

---------------
SCF CONVERGENCE
---------------

  Last Energy change         ...   -2.2686e-10  Tolerance :   1.0000e-08
  Last MAX-Density change    ...    1.8028e-05  Tolerance :   1.0000e-07
  Last RMS-Density change    ...    9.4244e-07  Tolerance :   5.0000e-09
  Last Orbital Gradient      ...    1.6411e-06  Tolerance :   1.0000e-05
  Last Orbital Rotation      ...    7.5663e-06  Tolerance :   1.0000e-05

             **** THE GBW FILE WAS UPDATED (./PH2N_VWN/input.gbw) ****
             **** DENSITY FILE WAS UPDATED (./PH2N_VWN/input.scfp) ****
             **** ENERGY FILE WAS UPDATED (./PH2N_VWN/input.en.tmp) ****
             **** THE GBW FILE WAS UPDATED (./PH2N_VWN/input.gbw) ****
             **** DENSITY FILE WAS UPDATED (./PH2N_VWN/input.scfp) ****
----------------
ORBITAL ENERGIES
----------------

  NO   OCC          E(Eh)            E(eV) 
   0   2.0000     -75.433947     -2052.6621 
   1   2.0000      -5.713146      -155.4626 
   2   2.0000      -3.962067      -107.8133 
   3   2.0000      -3.959908      -107.7546 
   4   2.0000      -3.959907      -107.7545 
   5   2.0000       0.009807         0.2669 
   6   2.0000       0.212574         5.7844 
   7   2.0000       0.327482         8.9112 
   8   2.0000       0.327494         8.9116 
   9   0.0000       0.429475        11.6866 
  10   0.0000       0.573479        15.6052 
  11   0.0000       0.655358        17.8332 
  12   0.0000       0.655389        17.8340 
  13   0.0000       0.685047        18.6411 
  14   0.0000       0.747053        20.3283 
  15   0.0000       0.747088        20.3293 
  16   0.0000       0.775562        21.1041 
  17   0.0000       0.777680        21.1618 
  18   0.0000       0.856702        23.3121 
  19   0.0000       0.983746        26.7691 
  20   0.0000       1.651991        44.9530 
  21   0.0000       1.657903        45.1138 
  22   0.0000       1.657917        45.1142 
  23   0.0000       1.674505        45.5656 
  24   0.0000       1.674522        45.5661 
  25   0.0000       1.683538        45.8114 
  26   0.0000       1.684008        45.8242 
  27   0.0000       1.824436        49.6454 
  28   0.0000       1.827545        49.7300 
  29   0.0000       1.841985        50.1230 
  30   0.0000       1.842022        50.1240 
  31   0.0000       1.911194        52.0062 
  32   0.0000       1.927238        52.4428 
  33   0.0000       1.927279        52.4439 
  34   0.0000       2.020939        54.9925 
  35   0.0000       2.391876        65.0862 
  36   0.0000       2.391926        65.0876 
  37   0.0000       2.804457        76.3132 
  38   0.0000       3.034781        82.5806 
  39   0.0000       7.588352       206.4896 
  40   0.0000       7.588371       206.4901 
  41   0.0000       7.634347       207.7411 
  42   0.0000      13.553424       368.8074 

                    ********************************
                    * MULLIKEN POPULATION ANALYSIS *
                    ********************************

-----------------------
MULLIKEN ATOMIC CHARGES
-----------------------
   0 P :   -1.786805
   1 H :   -0.213195
Sum of atomic charges:   -2.0000000

--------------------------------
MULLIKEN REDUCED ORBITAL CHARGES
--------------------------------
  0 P s       :     5.864032  s :     5.864032
      pz      :     3.992033  p :    10.890848
      px      :     2.906080
      py      :     3.992735
      dz2     :     0.006323  d :     0.027851
      dxz     :     0.001279
      dyz     :     0.000002
      dx2y2   :     0.019005
      dxy     :     0.001242
      f0      :     0.000113  f :     0.004074
      f+1     :     0.001320
      f-1     :     0.000012
      f+2     :     0.000165
      f-2     :     0.000001
      f+3     :     0.002208
      f-3     :     0.000255
  1 H s       :     1.197061  s :     1.197061
      pz      :     0.005505  p :     0.016134
      px      :     0.005120
      py      :     0.005510


                     *******************************
                     * LOEWDIN POPULATION ANALYSIS *
                     *******************************

----------------------
LOEWDIN ATOMIC CHARGES
----------------------
   0 P :   -1.858747
   1 H :   -0.141253

-------------------------------
LOEWDIN REDUCED ORBITAL CHARGES
-------------------------------
  0 P s       :     5.721927  s :     5.721927
      pz      :     3.983904  p :    11.066613
      px      :     3.098276
      py      :     3.984433
      dz2     :     0.014657  d :     0.060582
      dxz     :     0.000976
      dyz     :     0.000001
      dx2y2   :     0.044064
      dxy     :     0.000883
      f0      :     0.000054  f :     0.009625
      f+1     :     0.003514
      f-1     :     0.000004
      f+2     :     0.000076
      f-2     :     0.000000
      f+3     :     0.005882
      f-3     :     0.000095
  1 H s       :     1.085640  s :     1.085640
      pz      :     0.014444  p :     0.055614
      px      :     0.026733
      py      :     0.014436


                      *****************************
                      * MAYER POPULATION ANALYSIS *
                      *****************************

  NA   - Mulliken gross atomic population
  ZA   - Total nuclear charge
  QA   - Mulliken gross atomic charge
  VA   - Mayer's total valence
  BVA  - Mayer's bonded valence
  FA   - Mayer's free valence

  ATOM       NA         ZA         QA         VA         BVA        FA
  0 P     16.7868    15.0000    -1.7868     0.9545     0.9545     0.0000
  1 H      1.2132     1.0000    -0.2132     0.9545     0.9545    -0.0000

  Mayer bond orders larger than 0.100000
B(  0-P ,  1-H ) :   0.9545 

-------
TIMINGS
-------

Total SCF time: 0 days 0 hours 0 min 0 sec 

Total time                  ....       0.511 sec
Sum of individual times     ....       0.395 sec  ( 77.3%)

Fock matrix formation       ....       0.279 sec  ( 54.6%)
  Split-RI-J                ....       0.226 sec  ( 81.0% of F)
  XC integration            ....       0.043 sec  ( 15.5% of F)
    Basis function eval.    ....       0.016 sec  ( 38.0% of XC)
    Density eval.           ....       0.008 sec  ( 19.3% of XC)
    XC-Functional eval.     ....       0.009 sec  ( 20.3% of XC)
    XC-Potential eval.      ....       0.006 sec  ( 14.4% of XC)
Diagonalization             ....       0.000 sec  (  0.1%)
Density matrix formation    ....       0.000 sec  (  0.0%)
Population analysis         ....       0.001 sec  (  0.2%)
Initial guess               ....       0.001 sec  (  0.2%)
Orbital Transformation      ....       0.000 sec  (  0.0%)
Orbital Orthonormalization  ....       0.000 sec  (  0.0%)
DIIS solution               ....       0.000 sec  (  0.0%)
SOSCF solution              ....       0.020 sec  (  3.8%)
Grid generation             ....       0.094 sec  ( 18.4%)

-------------------------   --------------------
FINAL SINGLE POINT ENERGY      -340.423016369958
-------------------------   --------------------

                                *** OPTIMIZATION RUN DONE ***

                            ***************************************
                            *     ORCA property calculations      *
                            ***************************************

                                    ---------------------
                                    Active property flags
                                    ---------------------
   (+) Dipole Moment


------------------------------------------------------------------------------
                       ORCA ELECTRIC PROPERTIES CALCULATION
------------------------------------------------------------------------------

Dipole Moment Calculation                       ... on
Quadrupole Moment Calculation                   ... off
Polarizability Calculation                      ... off
GBWName                                         ... ./PH2N_VWN/input.gbw
Electron density file                           ... ./PH2N_VWN/input.scfp
The origin for moment calculation is the CENTER OF MASS  = (-2.468092,  1.007866 -0.078841)

-------------
DIPOLE MOMENT
-------------
                                X             Y             Z
Electronic contribution:     -1.49552       0.02012       0.03881
Nuclear contribution   :      1.38792      -0.01968      -0.03796
                        -----------------------------------------
Total Dipole Moment    :     -0.10761       0.00044       0.00085
                        -----------------------------------------
Magnitude (a.u.)       :      0.10761
Magnitude (Debye)      :      0.27353



--------------------
Rotational spectrum 
--------------------
 
Rotational constants in cm-1:     0.000000     7.859065     7.859065 
Rotational constants in MHz :     0.000000 235608.837076 235608.837076 

 Dipole components along the rotational axes: 
x,y,z [a.u.] :     0.107587     0.001593    -0.001743 
x,y,z [Debye]:     0.273463     0.004048    -0.004430 

 

----------------------------------------------------------------------------
                           ORCA NUMERICAL FREQUENCIES
----------------------------------------------------------------------------

Number of atoms                ... 2
Central differences            ... used
Number of displacements        ... 12
Numerical increment            ... 5.000e-03 bohr
IR-spectrum generation         ... on
Raman-spectrum generation      ... off
Surface Crossing Hessian       ... off

The output will be reduced. Please look at the following files:
SCF program output             ... >./PH2N_VWN/input.lastscf
Integral program output        ... >./PH2N_VWN/input.lastint
Gradient program output        ... >./PH2N_VWN/input.lastgrad
Dipole moment program output   ... >./PH2N_VWN/input.lastmom
AutoCI program output          ... >./PH2N_VWN/input.lastautoci


         <<< Energy and Gradient at the input geometry >>>

        <<< Energy and Gradient at displaced geometries >>>
             <<<Displacing   1/coordinate 1 (+)>>>
             <<<Displacing   1/coordinate 1 (-)>>>
             <<<Displacing   1/coordinate 2 (+)>>>
             <<<Displacing   1/coordinate 2 (-)>>>
             <<<Displacing   1/coordinate 3 (+)>>>
             <<<Displacing   1/coordinate 3 (-)>>>
             <<<Displacing   2/coordinate 1 (+)>>>
             <<<Displacing   2/coordinate 1 (-)>>>
             <<<Displacing   2/coordinate 2 (+)>>>
             <<<Displacing   2/coordinate 2 (-)>>>
             <<<Displacing   2/coordinate 3 (+)>>>
             <<<Displacing   2/coordinate 3 (-)>>>

-----------------------
VIBRATIONAL FREQUENCIES
-----------------------

Scaling factor for frequencies =  1.000000000 (already applied!)

   0:         0.00 cm**-1
   1:         0.00 cm**-1
   2:         0.00 cm**-1
   3:         0.00 cm**-1
   4:         0.00 cm**-1
   5:      1966.23 cm**-1


------------
NORMAL MODES
------------

These modes are the cartesian displacements weighted by the diagonal matrix
M(i,i)=1/sqrt(m[i]) where m[i] is the mass of the displaced atom
Thus, these vectors are normalized but *not* orthogonal

                  0          1          2          3          4          5    
      0       0.000000   0.000000   0.000000   0.000000   0.000000   0.032511
      1       0.000000   0.000000   0.000000   0.000000   0.000000  -0.000461
      2       0.000000   0.000000   0.000000   0.000000   0.000000  -0.000889
      3       0.000000   0.000000   0.000000   0.000000   0.000000  -0.998997
      4       0.000000   0.000000   0.000000   0.000000   0.000000   0.014165
      5       0.000000   0.000000   0.000000   0.000000   0.000000   0.027321


-----------
IR SPECTRUM  
-----------

 Mode    freq (cm**-1)   T**2         TX         TY         TZ
-------------------------------------------------------------------
   5:      1966.23  721.293077  ( 26.835079  -0.523508  -0.947400)

The first frequency considered to be a vibration is 5
The total number of vibrations considered is 1


--------------------------
THERMOCHEMISTRY AT 298.15K
--------------------------

Temperature         ... 298.15 K
Pressure            ... 1.00 atm
Total Mass          ... 31.98 AMU
The molecule is recognized as being linear

Throughout the following assumptions are being made:
  (1) The electronic state is orbitally nondegenerate
  (2) There are no thermally accessible electronically excited states
  (3) Hindered rotations indicated by low frequency modes are not
      treated as such but are treated as vibrations and this may
      cause some error
  (4) All equations used are the standard statistical mechanics
      equations for an ideal gas
  (5) All vibrations are strictly harmonic

freq.    1966.23  E(vib)   ...       0.00 

------------
INNER ENERGY
------------

The inner energy is: U= E(el) + E(ZPE) + E(vib) + E(rot) + E(trans)
    E(el)   - is the total energy from the electronic structure calculation
              = E(kin-el) + E(nuc-el) + E(el-el) + E(nuc-nuc)
    E(ZPE)  - the the zero temperature vibrational energy from the frequency calculation
    E(vib)  - the the finite temperature correction to E(ZPE) due to population
              of excited vibrational states
    E(rot)  - is the rotational thermal energy
    E(trans)- is the translational thermal energy

Summary of contributions to the inner energy U:
Electronic energy                ...   -340.42301638 Eh
Zero point energy                ...      0.00447941 Eh       2.81 kcal/mol
Thermal vibrational correction   ...      0.00000068 Eh       0.00 kcal/mol
Thermal rotational correction    ...      0.00094418 Eh       0.59 kcal/mol
Thermal translational correction ...      0.00141627 Eh       0.89 kcal/mol
-----------------------------------------------------------------------
Total thermal energy                   -340.41617583 Eh


Summary of corrections to the electronic energy:
(perhaps to be used in another calculation)
Total thermal correction                  0.00236113 Eh       1.48 kcal/mol
Non-thermal (ZPE) correction              0.00447941 Eh       2.81 kcal/mol
-----------------------------------------------------------------------
Total correction                          0.00684054 Eh       4.29 kcal/mol


--------
ENTHALPY
--------

The enthalpy is H = U + kB*T
                kB is Boltzmann's constant
Total free energy                 ...   -340.41617583 Eh 
Thermal Enthalpy correction       ...      0.00094421 Eh       0.59 kcal/mol
-----------------------------------------------------------------------
Total Enthalpy                    ...   -340.41523162 Eh


Note: Rotational entropy computed according to Herzberg 
Infrared and Raman Spectra, Chapter V,1, Van Nostrand Reinhold, 1945 
Point Group:  Cinfv, Symmetry Number:   1  
Rotational constants in cm-1:     0.000000     7.859065     7.859065 

Vibrational entropy computed according to the QRRHO of S. Grimme
Chem.Eur.J. 2012 18 9955


-------
ENTROPY
-------

The entropy contributions are T*S = T*(S(el)+S(vib)+S(rot)+S(trans))
     S(el)   - electronic entropy
     S(vib)  - vibrational entropy
     S(rot)  - rotational entropy
     S(trans)- translational entropy
The entropies will be listed as mutliplied by the temperature to get
units of energy

Electronic entropy                ...      0.00000000 Eh      0.00 kcal/mol
Vibrational entropy               ...      0.00000075 Eh      0.00 kcal/mol
Rotational entropy                ...      0.00403368 Eh      2.53 kcal/mol
Translational entropy             ...      0.01725670 Eh     10.83 kcal/mol
-----------------------------------------------------------------------
Final entropy term                ...      0.02129112 Eh     13.36 kcal/mol

In case the symmetry of your molecule has not been determined correctly
or in case you have a reason to use a different symmetry number we print 
out the resulting rotational entropy values for sn=1,12 :
 --------------------------------------------------------
|  sn= 1 | S(rot)=      -0.01179794 Eh     -7.40 kcal/mol|
|  sn= 2 | S(rot)=      -0.01245240 Eh     -7.81 kcal/mol|
|  sn= 3 | S(rot)=      -0.01283523 Eh     -8.05 kcal/mol|
|  sn= 4 | S(rot)=      -0.01310685 Eh     -8.22 kcal/mol|
|  sn= 5 | S(rot)=      -0.01331754 Eh     -8.36 kcal/mol|
|  sn= 6 | S(rot)=      -0.01348969 Eh     -8.46 kcal/mol|
|  sn= 7 | S(rot)=      -0.01363523 Eh     -8.56 kcal/mol|
|  sn= 8 | S(rot)=      -0.01376131 Eh     -8.64 kcal/mol|
|  sn= 9 | S(rot)=      -0.01387252 Eh     -8.71 kcal/mol|
|  sn=10 | S(rot)=      -0.01397200 Eh     -8.77 kcal/mol|
|  sn=11 | S(rot)=      -0.01406199 Eh     -8.82 kcal/mol|
|  sn=12 | S(rot)=      -0.01414414 Eh     -8.88 kcal/mol|
 --------------------------------------------------------


-------------------
GIBBS FREE ENERGY
-------------------

The Gibbs free energy is G = H - T*S

Total enthalpy                    ...   -340.41523162 Eh 
Total entropy correction          ...     -0.02129112 Eh    -13.36 kcal/mol
-----------------------------------------------------------------------
Final Gibbs free energy         ...   -340.43652275 Eh

For completeness - the Gibbs free energy minus the electronic energy
G-E(el)                           ...     -0.01350637 Eh     -8.48 kcal/mol


Total Time for Numerical Frequencies  :        41.577 sec

Timings for individual modules:

Sum of individual times         ...       11.749 sec (=   0.196 min)
GTO integral calculation        ...        1.136 sec (=   0.019 min)   9.7 %
SCF iterations                  ...        8.133 sec (=   0.136 min)  69.2 %
SCF Gradient evaluation         ...        2.360 sec (=   0.039 min)  20.1 %
Geometry relaxation             ...        0.120 sec (=   0.002 min)   1.0 %
                             ****ORCA TERMINATED NORMALLY****
TOTAL RUN TIME: 0 days 0 hours 0 minutes 52 seconds 441 msec
