
                                 *****************
                                 * O   R   C   A *
                                 *****************

                                            #,                                       
                                            ###                                      
                                            ####                                     
                                            #####                                    
                                            ######                                   
                                           ########,                                 
                                     ,,################,,,,,                         
                               ,,#################################,,                 
                          ,,##########################################,,             
                       ,#########################################, ''#####,          
                    ,#############################################,,   '####,        
                  ,##################################################,,,,####,       
                ,###########''''           ''''###############################       
              ,#####''   ,,,,##########,,,,          '''####'''          '####       
            ,##' ,,,,###########################,,,                        '##       
           ' ,,###''''                  '''############,,,                           
         ,,##''                                '''############,,,,        ,,,,,,###''
      ,#''                                            '''#######################'''  
     '                                                          ''''####''''         
             ,#######,   #######,   ,#######,      ##                                
            ,#'     '#,  ##    ##  ,#'     '#,    #''#        ######   ,####,        
            ##       ##  ##   ,#'  ##            #'  '#       #        #'  '#        
            ##       ##  #######   ##           ,######,      #####,   #    #        
            '#,     ,#'  ##    ##  '#,     ,#' ,#      #,         ##   #,  ,#        
             '#######'   ##     ##  '#######'  #'      '#     #####' # '####'        



                  #######################################################
                  #                        -***-                        #
                  #          Department of theory and spectroscopy      #
                  #    Directorship and core code : Frank Neese         #
                  #        Max Planck Institute fuer Kohlenforschung    #
                  #                Kaiser Wilhelm Platz 1               #
                  #                 D-45470 Muelheim/Ruhr               #
                  #                      Germany                        #
                  #                                                     #
                  #                  All rights reserved                #
                  #                        -***-                        #
                  #######################################################


                         Program Version 5.0.3 -  RELEASE  -


 With contributions from (in alphabetic order):
   Daniel Aravena         : Magnetic Suceptibility
   Michael Atanasov       : Ab Initio Ligand Field Theory (pilot matlab implementation)
   Alexander A. Auer      : GIAO ZORA, VPT2 properties, NMR spectrum
   Ute Becker             : Parallelization
   Giovanni Bistoni       : ED, misc. LED, open-shell LED, HFLD
   Martin Brehm           : Molecular dynamics
   Dmytro Bykov           : SCF Hessian
   Vijay G. Chilkuri      : MRCI spin determinant printing, contributions to CSF-ICE
   Dipayan Datta          : RHF DLPNO-CCSD density
   Achintya Kumar Dutta   : EOM-CC, STEOM-CC
   Dmitry Ganyushin       : Spin-Orbit,Spin-Spin,Magnetic field MRCI
   Miquel Garcia          : C-PCM and meta-GGA Hessian, CC/C-PCM, Gaussian charge scheme
   Yang Guo               : DLPNO-NEVPT2, F12-NEVPT2, CIM, IAO-localization
   Andreas Hansen         : Spin unrestricted coupled pair/coupled cluster methods
   Benjamin Helmich-Paris : MC-RPA, TRAH-SCF, COSX integrals
   Lee Huntington         : MR-EOM, pCC
   Robert Izsak           : Overlap fitted RIJCOSX, COSX-SCS-MP3, EOM
   Marcus Kettner         : VPT2
   Christian Kollmar      : KDIIS, OOCD, Brueckner-CCSD(T), CCSD density, CASPT2, CASPT2-K
   Simone Kossmann        : Meta GGA functionals, TD-DFT gradient, OOMP2, MP2 Hessian
   Martin Krupicka        : Initial AUTO-CI
   Lucas Lang             : DCDCAS
   Marvin Lechner         : AUTO-CI (C++ implementation), FIC-MRCC
   Dagmar Lenk            : GEPOL surface, SMD
   Dimitrios Liakos       : Extrapolation schemes; Compound Job, initial MDCI parallelization
   Dimitrios Manganas     : Further ROCIS development; embedding schemes
   Dimitrios Pantazis     : SARC Basis sets
   Anastasios Papadopoulos: AUTO-CI, single reference methods and gradients
   Taras Petrenko         : DFT Hessian,TD-DFT gradient, ASA, ECA, R-Raman, ABS, FL, XAS/XES, NRVS
   Peter Pinski           : DLPNO-MP2, DLPNO-MP2 Gradient
   Christoph Reimann      : Effective Core Potentials
   Marius Retegan         : Local ZFS, SOC
   Christoph Riplinger    : Optimizer, TS searches, QM/MM, DLPNO-CCSD(T), (RO)-DLPNO pert. Triples
   Tobias Risthaus        : Range-separated hybrids, TD-DFT gradient, RPA, STAB
   Michael Roemelt        : Original ROCIS implementation
   Masaaki Saitow         : Open-shell DLPNO-CCSD energy and density
   Barbara Sandhoefer     : DKH picture change effects
   Avijit Sen             : IP-ROCIS
   Kantharuban Sivalingam : CASSCF convergence, NEVPT2, FIC-MRCI
   Bernardo de Souza      : ESD, SOC TD-DFT
   Georgi Stoychev        : AutoAux, RI-MP2 NMR, DLPNO-MP2 response
   Willem Van den Heuvel  : Paramagnetic NMR
   Boris Wezisla          : Elementary symmetry handling
   Frank Wennmohs         : Technical directorship


 We gratefully acknowledge several colleagues who have allowed us to
 interface, adapt or use parts of their codes:
   Stefan Grimme, W. Hujo, H. Kruse, P. Pracht,  : VdW corrections, initial TS optimization,
                  C. Bannwarth, S. Ehlert          DFT functionals, gCP, sTDA/sTD-DF
   Ed Valeev, F. Pavosevic, A. Kumar             : LibInt (2-el integral package), F12 methods
   Garnet Chan, S. Sharma, J. Yang, R. Olivares  : DMRG
   Ulf Ekstrom                                   : XCFun DFT Library
   Mihaly Kallay                                 : mrcc  (arbitrary order and MRCC methods)
   Jiri Pittner, Ondrej Demel                    : Mk-CCSD
   Frank Weinhold                                : gennbo (NPA and NBO analysis)
   Christopher J. Cramer and Donald G. Truhlar   : smd solvation model
   Lars Goerigk                                  : TD-DFT with DH, B97 family of functionals
   V. Asgeirsson, H. Jonsson                     : NEB implementation
   FAccTs GmbH                                   : IRC, NEB, NEB-TS, DLPNO-Multilevel, CI-OPT
                                                   MM, QMMM, 2- and 3-layer-ONIOM, Crystal-QMMM,
                                                   LR-CPCM, SF, NACMEs, symmetry and pop. for TD-DFT,
                                                   nearIR, NL-DFT gradient (VV10), updates on ESD,
                                                   ML-optimized integration grids
   S Lehtola, MJT Oliveira, MAL Marques          : LibXC Library
   Liviu Ungur et al                             : ANISO software


 Your calculation uses the libint2 library for the computation of 2-el integrals
 For citations please refer to: http://libint.valeyev.net

 Your ORCA version has been built with support for libXC version: 5.1.0
 For citations please refer to: https://tddft.org/programs/libxc/

 This ORCA versions uses:
   CBLAS   interface :  Fast vector & matrix operations
   LAPACKE interface :  Fast linear algebra routines
   Shared memory     :  Shared parallel matrices


SCAN-COORDS
================================================================================

----- Orbital basis set information -----
Your calculation utilizes the basis: def2-TZVP
   F. Weigend and R. Ahlrichs, Phys. Chem. Chem. Phys. 7, 3297 (2005).

----- AuxJ basis set information -----
Your calculation utilizes the auxiliary basis: def2/J
   F. Weigend, Phys. Chem. Chem. Phys. 8, 1057 (2006).

================================================================================
                                        WARNINGS
                       Please study these warnings very carefully!
================================================================================

WARNING: Gradients needed for Numerical Frequencies
  ===> : Setting RunTyp to EnGrad

WARNING: The environment variable RSH_COMMAND is not set!
  ===> : All Displacements for the Numerical Hessian or Gradient calculation
         will be started on localhost

INFO   : the flag for use of the SHARK integral package has been found!

================================================================================
                                       INPUT FILE
================================================================================
NAME = HCN_75.inp
|  1> ! PAL5 PBE0 NumFreq
|  2> %method
|  3>         method DFT
|  4>         runtyp Energy
|  5> end
|  6> %basis
|  7>         basis "def2-TZVP"
|  8> end
|  9> %coords
| 10>         CTyp xyz
| 11>         Charge 0
| 12>         Mult 1
| 13>         Units Angs
| 14>         coords
| 15> 	#75
| 16> 	C     -1.011290    0.960957    0.000001
| 17> 	N     -1.306086    0.975537   -1.118876
| 18> 	H     -2.068270    1.013340    0.000003
| 19> 	end
| 20> end
| 21> %eprnmr
| 22>         NMRShielding 1
| 23>         Nuclei = all N {shift}
| 24>         Nuclei = all C {shift}
| 25>         Nuclei = all H {shift}
| 26> endd                         ****END OF INPUT****
================================================================================

                     *******************************
                     * Energy+Gradient Calculation *
                     *******************************

---------------------------------
CARTESIAN COORDINATES (ANGSTROEM)
---------------------------------
  C     -1.011290    0.960957    0.000001
  N     -1.306086    0.975537   -1.118876
  H     -2.068270    1.013340    0.000003

----------------------------
CARTESIAN COORDINATES (A.U.)
----------------------------
  NO LB      ZA    FRAG     MASS         X           Y           Z
   0 C     6.0000    0    12.011   -1.911061    1.815946    0.000002
   1 N     7.0000    0    14.007   -2.468145    1.843498   -2.114369
   2 H     1.0000    0     1.008   -3.908464    1.914935    0.000006

--------------------------------
INTERNAL COORDINATES (ANGSTROEM)
--------------------------------
 C      0   0   0     0.000000000000     0.00000000     0.00000000
 N      1   0   0     1.157152971368     0.00000000     0.00000000
 H      1   2   0     1.058277231680    75.22230776     0.00000000

---------------------------
INTERNAL COORDINATES (A.U.)
---------------------------
 C      0   0   0     0.000000000000     0.00000000     0.00000000
 N      1   0   0     2.186702210938     0.00000000     0.00000000
 H      1   2   0     1.999854141640    75.22230776     0.00000000

---------------------
BASIS SET INFORMATION
---------------------
There are 3 groups of distinct atoms

 Group   1 Type C   : 11s6p2d1f contracted to 5s3p2d1f pattern {62111/411/11/1}
 Group   2 Type N   : 11s6p2d1f contracted to 5s3p2d1f pattern {62111/411/11/1}
 Group   3 Type H   : 5s1p contracted to 3s1p pattern {311/1}

Atom   0C    basis set group =>   1
Atom   1N    basis set group =>   2
Atom   2H    basis set group =>   3
---------------------------------
AUXILIARY/J BASIS SET INFORMATION
---------------------------------
There are 3 groups of distinct atoms

 Group   1 Type C   : 12s5p4d2f1g contracted to 6s4p3d1f1g pattern {711111/2111/211/2/1}
 Group   2 Type N   : 12s5p4d2f1g contracted to 6s4p3d1f1g pattern {711111/2111/211/2/1}
 Group   3 Type H   : 5s2p1d contracted to 3s1p1d pattern {311/2/1}

Atom   0C    basis set group =>   1
Atom   1N    basis set group =>   2
Atom   2H    basis set group =>   3


           ************************************************************
           *        Program running with 5 parallel MPI-processes     *
           *              working on a common directory               *
           ************************************************************
------------------------------------------------------------------------------
                           ORCA GTO INTEGRAL CALCULATION
                           -- RI-GTO INTEGRALS CHOSEN --
------------------------------------------------------------------------------
------------------------------------------------------------------------------
                   ___                                                        
                  /   \      - P O W E R E D   B Y -                         
                 /     \                                                     
                 |  |  |   _    _      __       _____    __    __             
                 |  |  |  | |  | |    /  \     |  _  \  |  |  /  |          
                  \  \/   | |  | |   /    \    | | | |  |  | /  /          
                 / \  \   | |__| |  /  /\  \   | |_| |  |  |/  /          
                |  |  |   |  __  | /  /__\  \  |    /   |      \           
                |  |  |   | |  | | |   __   |  |    \   |  |\   \          
                \     /   | |  | | |  |  |  |  | |\  \  |  | \   \       
                 \___/    |_|  |_| |__|  |__|  |_| \__\ |__|  \__/        
                                                                              
                      - O R C A' S   B I G   F R I E N D -                    
                                      &                                       
                       - I N T E G R A L  F E E D E R -                       
                                                                              
 v1 FN, 2020, v2 2021                                                         
------------------------------------------------------------------------------


Reading SHARK input file HCN_75.SHARKINP.tmp ... ok
----------------------
SHARK INTEGRAL PACKAGE
----------------------

Number of atoms                             ...      3
Number of basis functions                   ...     68
Number of shells                            ...     26
Maximum angular momentum                    ...      3
Integral batch strategy                     ... SHARK/LIBINT Hybrid
RI-J (if used) integral strategy            ... SPLIT-RIJ (Revised 2003 algorithm where possible)
Printlevel                                  ...      1
Contraction scheme used                     ... SEGMENTED contraction
Coulomb Range Separation                    ... NOT USED
Exchange Range Separation                   ... NOT USED
Finite Nucleus Model                        ... NOT USED
Auxiliary Coulomb fitting basis             ... AVAILABLE
   # of basis functions in Aux-J            ...    109
   # of shells in Aux-J                     ...     35
   Maximum angular momentum in Aux-J        ...      4
Auxiliary J/K fitting basis                 ... NOT available
Auxiliary Correlation fitting basis         ... NOT available
Auxiliary 'external' fitting basis          ... NOT available
Integral threshold                          ...     2.500000e-11
Primitive cut-off                           ...     2.500000e-12
Primitive pair pre-selection threshold      ...     2.500000e-12

Calculating pre-screening integrals         ... done (  0.0 sec) Dimension = 26
Organizing shell pair data                  ... done (  0.0 sec)
Shell pair information
Total number of shell pairs                 ...       351
Shell pairs after pre-screening             ...       350
Total number of primitive shell pairs       ...      1128
Primitive shell pairs kept                  ...      1037
          la=0 lb=0:     90 shell pairs
          la=1 lb=0:     91 shell pairs
          la=1 lb=1:     28 shell pairs
          la=2 lb=0:     52 shell pairs
          la=2 lb=1:     28 shell pairs
          la=2 lb=2:     10 shell pairs
          la=3 lb=0:     26 shell pairs
          la=3 lb=1:     14 shell pairs
          la=3 lb=2:      8 shell pairs
          la=3 lb=3:      3 shell pairs

Calculating one electron integrals          ... done (  0.0 sec)
Calculating RI/J V-Matrix + Cholesky decomp.... done (  0.0 sec)
Calculating Nuclear repulsion               ... done (  0.0 sec) ENN=     24.942307540208 Eh

SHARK setup successfully completed in   0.1 seconds

Maximum memory used throughout the entire GTOINT-calculation: 14.0 MB


           ************************************************************
           *        Program running with 5 parallel MPI-processes     *
           *              working on a common directory               *
           ************************************************************
-------------------------------------------------------------------------------
                                 ORCA SCF
-------------------------------------------------------------------------------

------------
SCF SETTINGS
------------
Hamiltonian:
 Density Functional     Method          .... DFT(GTOs)
 Exchange Functional    Exchange        .... PBE
   PBE kappa parameter   XKappa         ....  0.804000
   PBE mue parameter    XMuePBE         ....  0.219520
 Correlation Functional Correlation     .... PBE
   PBE beta parameter  CBetaPBE         ....  0.066725
 LDA part of GGA corr.  LDAOpt          .... PW91-LDA
 Gradients option       PostSCFGGA      .... off
 Hybrid DFT is turned on
   Fraction HF Exchange ScalHFX         ....  0.250000
   Scaling of DF-GGA-X  ScalDFX         ....  0.750000
   Scaling of DF-GGA-C  ScalDFC         ....  1.000000
   Scaling of DF-LDA-C  ScalLDAC        ....  1.000000
   Perturbative correction              ....  0.000000
   Density functional embedding theory  .... OFF
   NL short-range parameter             ....  6.900000
 RI-approximation to the Coulomb term is turned on
   Number of AuxJ basis functions       .... 109
   RIJ-COSX (HFX calculated with COS-X)).... on


General Settings:
 Integral files         IntName         .... HCN_75
 Hartree-Fock type      HFTyp           .... RHF
 Total Charge           Charge          ....    0
 Multiplicity           Mult            ....    1
 Number of Electrons    NEL             ....   14
 Basis Dimension        Dim             ....   68
 Nuclear Repulsion      ENuc            ....     24.9423075402 Eh

Convergence Acceleration:
 DIIS                   CNVDIIS         .... on
   Start iteration      DIISMaxIt       ....    12
   Startup error        DIISStart       ....  0.200000
   # of expansion vecs  DIISMaxEq       ....     5
   Bias factor          DIISBfac        ....   1.050
   Max. coefficient     DIISMaxC        ....  10.000
 Trust-Rad. Augm. Hess. CNVTRAH         .... auto
   Auto Start mean grad. ratio tolernc. ....  1.125000
   Auto Start start iteration           ....    20
   Auto Start num. interpolation iter.  ....    10
   Max. Number of Micro iterations      ....    16
   Max. Number of Macro iterations      .... Maxiter - #DIIS iter
   Number of Davidson start vectors     ....     2
   Converg. threshold I  (grad. norm)   ....   1.000e-05
   Converg. threshold II (energy diff.) ....   1.000e-08
   Grad. Scal. Fac. for Micro threshold ....   0.100
   Minimum threshold for Micro iter.    ....   0.010
   NR start threshold (gradient norm)   ....   0.001
   Initial trust radius                 ....   0.400
   Minimum AH scaling param. (alpha)    ....   1.000
   Maximum AH scaling param. (alpha)    .... 1000.000
   Orbital update algorithm             .... Taylor
   White noise on init. David. guess    .... on
   Maximum white noise                  ....   0.010
   Quad. conv. algorithm                .... NR
 SOSCF                  CNVSOSCF        .... on
   Start iteration      SOSCFMaxIt      ....   150
   Startup grad/error   SOSCFStart      ....  0.003300
 Level Shifting         CNVShift        .... on
   Level shift para.    LevelShift      ....    0.2500
   Turn off err/grad.   ShiftErr        ....    0.0010
 Zerner damping         CNVZerner       .... off
 Static damping         CNVDamp         .... on
   Fraction old density DampFac         ....    0.7000
   Max. Damping (<1)    DampMax         ....    0.9800
   Min. Damping (>=0)   DampMin         ....    0.0000
   Turn off err/grad.   DampErr         ....    0.1000
 Fernandez-Rico         CNVRico         .... off

SCF Procedure:
 Maximum # iterations   MaxIter         ....   125
 SCF integral mode      SCFMode         .... Direct
   Integral package                     .... SHARK and LIBINT hybrid scheme
 Reset frequency        DirectResetFreq ....    20
 Integral Threshold     Thresh          ....  2.500e-11 Eh
 Primitive CutOff       TCut            ....  2.500e-12 Eh

Convergence Tolerance:
 Convergence Check Mode ConvCheckMode   .... Total+1el-Energy
 Convergence forced     ConvForced      .... 0
 Energy Change          TolE            ....  1.000e-08 Eh
 1-El. energy change                    ....  1.000e-05 Eh
 Orbital Gradient       TolG            ....  1.000e-05
 Orbital Rotation angle TolX            ....  1.000e-05
 DIIS Error             TolErr          ....  5.000e-07


Diagonalization of the overlap matrix:
Smallest eigenvalue                        ... 6.567e-04
Time for diagonalization                   ...    0.000 sec
Threshold for overlap eigenvalues          ... 1.000e-08
Number of eigenvalues below threshold      ... 0
Time for construction of square roots      ...    0.004 sec
Total time needed                          ...    0.005 sec

Time for model grid setup =    0.014 sec

------------------------------
INITIAL GUESS: MODEL POTENTIAL
------------------------------
Loading Hartree-Fock densities                     ... done
Calculating cut-offs                               ... done
Initializing the effective Hamiltonian             ... done
Setting up the integral package (SHARK)            ... done
Starting the Coulomb interaction                   ... done (   0.0 sec)
Reading the grid                                   ... done
Mapping shells                                     ... done
Starting the XC term evaluation                    ... done (   0.0 sec)
  promolecular density results
     # of electrons  =     13.999633284
     EX              =    -11.869407074
     EC              =     -0.438492261
     EX+EC           =    -12.307899335
Transforming the Hamiltonian                       ... done (   0.0 sec)
Diagonalizing the Hamiltonian                      ... done (   0.0 sec)
Back transforming the eigenvectors                 ... done (   0.0 sec)
Now organizing SCF variables                       ... done
                      ------------------
                      INITIAL GUESS DONE (   0.0 sec)
                      ------------------
-------------------
DFT GRID GENERATION
-------------------

General Integration Accuracy     IntAcc      ... 4.388
Radial Grid Type                 RadialGrid  ... OptM3 with GC (2021)
Angular Grid (max. ang.)         AngularGrid ... 4 (Lebedev-302)
Angular grid pruning method      GridPruning ... 4 (adaptive)
Weight generation scheme         WeightScheme... Becke
Basis function cutoff            BFCut       ... 1.0000e-11
Integration weight cutoff        WCut        ... 1.0000e-14
Angular grids for H and He will be reduced by one unit
Partially contracted basis set               ... off
Rotationally invariant grid construction     ... off

Total number of grid points                  ...    15553
Total number of batches                      ...      244
Average number of points per batch           ...       63
Average number of grid points per atom       ...     5184
Time for grid setup =    0.057 sec

--------------------
COSX GRID GENERATION
--------------------

GRIDX 1
-------
General Integration Accuracy     IntAcc      ... 3.816
Radial Grid Type                 RadialGrid  ... OptM3 with GC (2021)
Angular Grid (max. ang.)         AngularGrid ... 1 (Lebedev-50)
Angular grid pruning method      GridPruning ... 4 (adaptive)
Weight generation scheme         WeightScheme... Becke
Basis function cutoff            BFCut       ... 1.0000e-11
Integration weight cutoff        WCut        ... 1.0000e-14
Angular grids for H and He will be reduced by one unit
Partially contracted basis set               ... on
Rotationally invariant grid construction     ... off

Total number of grid points                  ...     1978
Total number of batches                      ...       32
Average number of points per batch           ...       61
Average number of grid points per atom       ...      659
UseSFitting                                  ... on

GRIDX 2
-------
General Integration Accuracy     IntAcc      ... 4.020
Radial Grid Type                 RadialGrid  ... OptM3 with GC (2021)
Angular Grid (max. ang.)         AngularGrid ... 2 (Lebedev-110)
Angular grid pruning method      GridPruning ... 4 (adaptive)
Weight generation scheme         WeightScheme... Becke
Basis function cutoff            BFCut       ... 1.0000e-11
Integration weight cutoff        WCut        ... 1.0000e-14
Angular grids for H and He will be reduced by one unit
Partially contracted basis set               ... on
Rotationally invariant grid construction     ... off

Total number of grid points                  ...     4576
Total number of batches                      ...       73
Average number of points per batch           ...       62
Average number of grid points per atom       ...     1525
UseSFitting                                  ... on

GRIDX 3
-------
General Integration Accuracy     IntAcc      ... 4.338
Radial Grid Type                 RadialGrid  ... OptM3 with GC (2021)
Angular Grid (max. ang.)         AngularGrid ... 3 (Lebedev-194)
Angular grid pruning method      GridPruning ... 4 (adaptive)
Weight generation scheme         WeightScheme... Becke
Basis function cutoff            BFCut       ... 1.0000e-11
Integration weight cutoff        WCut        ... 1.0000e-14
Angular grids for H and He will be reduced by one unit
Partially contracted basis set               ... on
Rotationally invariant grid construction     ... off

Total number of grid points                  ...    10194
Total number of batches                      ...      161
Average number of points per batch           ...       63
Average number of grid points per atom       ...     3398
UseSFitting                                  ... on

Time for X-Grid setup             =    0.086 sec

--------------
SCF ITERATIONS
--------------
ITER       Energy         Delta-E        Max-DP      RMS-DP      [F,P]     Damp
               ***  Starting incremental Fock matrix formation  ***
  0    -93.2237431977   0.000000000000 0.02434558  0.00139202  0.1411793 0.7000
  1    -93.2409270163  -0.017183818622 0.02511789  0.00104454  0.0707527 0.7000
                               ***Turning on DIIS***
  2    -93.2487253547  -0.007798338337 0.05556885  0.00198283  0.0365405 0.0000
  3    -93.2610967745  -0.012371419855 0.01625024  0.00074359  0.0329634 0.0000
  4    -93.2631924612  -0.002095686689 0.00765075  0.00029133  0.0104027 0.0000
                      *** Initiating the SOSCF procedure ***
                           *** Shutting down DIIS ***
                      *** Re-Reading the Fockian *** 
                      *** Removing any level shift *** 
ITER      Energy       Delta-E        Grad      Rot      Max-DP    RMS-DP
  5    -93.26337367  -0.0001812131  0.000425  0.000425  0.001651  0.000067
               *** Restarting incremental Fock matrix formation ***
  6    -93.26336138   0.0000122927  0.000183  0.000587  0.000581  0.000032
  7    -93.26336197  -0.0000005880  0.000062  0.000188  0.000150  0.000010
  8    -93.26336202  -0.0000000484  0.000040  0.000063  0.000076  0.000004
  9    -93.26336202  -0.0000000044  0.000048  0.000057  0.000049  0.000003
 10    -93.26336203  -0.0000000096  0.000009  0.000015  0.000029  0.000002
 11    -93.26336203  -0.0000000014  0.000003  0.000003  0.000005  0.000000
                  ***Gradient check signals convergence***
              ***Rediagonalizing the Fockian in SOSCF/NRSCF***

               *****************************************************
               *                     SUCCESS                       *
               *           SCF CONVERGED AFTER  12 CYCLES          *
               *****************************************************

Old exchange energy                            =     -3.013457131 Eh
New exchange energy                            =     -3.013453061 Eh
Exchange energy change after final integration =      0.000004070 Eh
Total energy after final integration           =    -93.263357963 Eh
Final COS-X integration done in                =     0.102 sec

----------------
TOTAL SCF ENERGY
----------------

Total Energy       :          -93.26335796 Eh           -2537.82499 eV

Components:
Nuclear Repulsion  :           24.94230754 Eh             678.71469 eV
Electronic Energy  :         -118.20566550 Eh           -3216.53968 eV
One Electron Energy:         -174.44216123 Eh           -4746.81253 eV
Two Electron Energy:           56.23649572 Eh            1530.27285 eV
Max COSX asymmetry :            0.00000095 Eh               0.00003 eV

Virial components:
Potential Energy   :         -186.39994642 Eh           -5072.20041 eV
Kinetic Energy     :           93.13658846 Eh            2534.37542 eV
Virial Ratio       :            2.00136111


DFT components:
N(Alpha)           :        7.000002770568 electrons
N(Beta)            :        7.000002770568 electrons
N(Total)           :       14.000005541135 electrons
E(X)               :       -9.040934235211 Eh       
E(C)               :       -0.444527597428 Eh       
E(XC)              :       -9.485461832639 Eh       
DFET-embed. en.    :        0.000000000000 Eh       

---------------
SCF CONVERGENCE
---------------

  Last Energy change         ...   -7.8643e-11  Tolerance :   1.0000e-08
  Last MAX-Density change    ...    4.8052e-16  Tolerance :   1.0000e-07
  Last RMS-Density change    ...    2.7513e-17  Tolerance :   5.0000e-09
  Last Orbital Gradient      ...    5.0468e-07  Tolerance :   1.0000e-05
  Last Orbital Rotation      ...    5.8639e-07  Tolerance :   1.0000e-05

             **** THE GBW FILE WAS UPDATED (HCN_75.gbw) ****
             **** DENSITY HCN_75.scfp WAS UPDATED ****
             **** ENERGY FILE WAS UPDATED (HCN_75.en.tmp) ****
             **** THE GBW FILE WAS UPDATED (HCN_75.gbw) ****
             **** DENSITY HCN_75.scfp WAS UPDATED ****
----------------
ORBITAL ENERGIES
----------------

  NO   OCC          E(Eh)            E(eV) 
   0   2.0000     -14.456114      -393.3709 
   1   2.0000     -10.276513      -279.6381 
   2   2.0000      -1.040346       -28.3093 
   3   2.0000      -0.570913       -15.5353 
   4   2.0000      -0.470414       -12.8006 
   5   2.0000      -0.417297       -11.3552 
   6   2.0000      -0.361995        -9.8504 
   7   0.0000      -0.059053        -1.6069 
   8   0.0000       0.009615         0.2616 
   9   0.0000       0.071109         1.9350 
  10   0.0000       0.159018         4.3271 
  11   0.0000       0.202920         5.5217 
  12   0.0000       0.218441         5.9441 
  13   0.0000       0.226526         6.1641 
  14   0.0000       0.310121         8.4388 
  15   0.0000       0.402535        10.9535 
  16   0.0000       0.419863        11.4251 
  17   0.0000       0.425955        11.5908 
  18   0.0000       0.540048        14.6955 
  19   0.0000       0.581768        15.8307 
  20   0.0000       0.664079        18.0705 
  21   0.0000       0.773459        21.0469 
  22   0.0000       0.845285        23.0014 
  23   0.0000       0.921814        25.0838 
  24   0.0000       1.102795        30.0086 
  25   0.0000       1.138360        30.9764 
  26   0.0000       1.143620        31.1195 
  27   0.0000       1.246173        33.9101 
  28   0.0000       1.324926        36.0531 
  29   0.0000       1.394412        37.9439 
  30   0.0000       1.479085        40.2479 
  31   0.0000       1.500267        40.8243 
  32   0.0000       1.518800        41.3286 
  33   0.0000       1.765054        48.0296 
  34   0.0000       1.818314        49.4788 
  35   0.0000       1.911582        52.0168 
  36   0.0000       2.043121        55.5961 
  37   0.0000       2.117851        57.6297 
  38   0.0000       2.188192        59.5437 
  39   0.0000       2.419344        65.8337 
  40   0.0000       2.567178        69.8565 
  41   0.0000       2.701136        73.5016 
  42   0.0000       2.885520        78.5190 
  43   0.0000       2.900217        78.9189 
  44   0.0000       2.920274        79.4647 
  45   0.0000       2.949949        80.2722 
  46   0.0000       3.086600        83.9907 
  47   0.0000       3.143863        85.5488 
  48   0.0000       3.254061        88.5475 
  49   0.0000       3.371993        91.7566 
  50   0.0000       3.375824        91.8608 
  51   0.0000       3.447786        93.8190 
  52   0.0000       3.830733       104.2395 
  53   0.0000       3.904686       106.2519 
  54   0.0000       4.054759       110.3356 
  55   0.0000       4.153042       113.0100 
  56   0.0000       4.408736       119.9678 
  57   0.0000       4.541544       123.5817 
  58   0.0000       4.559464       124.0693 
  59   0.0000       4.657797       126.7451 
  60   0.0000       4.830108       131.4339 
  61   0.0000       4.994081       135.8958 
  62   0.0000       5.330625       145.0537 
  63   0.0000       5.399546       146.9291 
  64   0.0000       5.468487       148.8051 
  65   0.0000       5.707261       155.3025 
  66   0.0000      22.053876       600.1165 
  67   0.0000      31.880522       867.5131 

                    ********************************
                    * MULLIKEN POPULATION ANALYSIS *
                    ********************************

-----------------------
MULLIKEN ATOMIC CHARGES
-----------------------
   0 C :   -0.266034
   1 N :    0.023449
   2 H :    0.242585
Sum of atomic charges:    0.0000000

--------------------------------
MULLIKEN REDUCED ORBITAL CHARGES
--------------------------------
  0 C s       :     3.703659  s :     3.703659
      pz      :     1.028454  p :     2.455135
      px      :     0.684580
      py      :     0.742101
      dz2     :     0.029619  d :     0.099153
      dxz     :     0.021797
      dyz     :     0.031297
      dx2y2   :     0.009452
      dxy     :     0.006988
      f0      :     0.001528  f :     0.008088
      f+1     :     0.001265
      f-1     :     0.002884
      f+2     :     0.000660
      f-2     :     0.000825
      f+3     :     0.000691
      f-3     :     0.000234
  1 N s       :     3.720034  s :     3.720034
      pz      :     1.168686  p :     3.198932
      px      :     0.845116
      py      :     1.185130
      dz2     :     0.011524  d :     0.055077
      dxz     :     0.024796
      dyz     :     0.018530
      dx2y2   :     0.000060
      dxy     :     0.000167
      f0      :     0.000351  f :     0.002507
      f+1     :     0.001020
      f-1     :     0.001027
      f+2     :     0.000020
      f-2     :     0.000015
      f+3     :     0.000038
      f-3     :     0.000036
  2 H s       :     0.715039  s :     0.715039
      pz      :     0.015892  p :     0.042376
      px      :     0.016663
      py      :     0.009821


                     *******************************
                     * LOEWDIN POPULATION ANALYSIS *
                     *******************************

----------------------
LOEWDIN ATOMIC CHARGES
----------------------
   0 C :   -0.315377
   1 N :    0.114726
   2 H :    0.200650

-------------------------------
LOEWDIN REDUCED ORBITAL CHARGES
-------------------------------
  0 C s       :     3.179601  s :     3.179601
      pz      :     1.267857  p :     2.803732
      px      :     0.791119
      py      :     0.744756
      dz2     :     0.126497  d :     0.283044
      dxz     :     0.056758
      dyz     :     0.063913
      dx2y2   :     0.028058
      dxy     :     0.007817
      f0      :     0.015543  f :     0.048999
      f+1     :     0.009395
      f-1     :     0.015696
      f+2     :     0.001922
      f-2     :     0.003183
      f+3     :     0.003080
      f-3     :     0.000180
  1 N s       :     3.328172  s :     3.328172
      pz      :     1.452180  p :     3.412922
      px      :     0.847731
      py      :     1.113012
      dz2     :     0.052586  d :     0.128671
      dxz     :     0.049995
      dyz     :     0.024966
      dx2y2   :     0.000395
      dxy     :     0.000729
      f0      :     0.005569  f :     0.015508
      f+1     :     0.006292
      f-1     :     0.002987
      f+2     :     0.000197
      f-2     :     0.000332
      f+3     :     0.000101
      f-3     :     0.000030
  2 H s       :     0.685733  s :     0.685733
      pz      :     0.045858  p :     0.113617
      px      :     0.045554
      py      :     0.022204


                      *****************************
                      * MAYER POPULATION ANALYSIS *
                      *****************************

  NA   - Mulliken gross atomic population
  ZA   - Total nuclear charge
  QA   - Mulliken gross atomic charge
  VA   - Mayer's total valence
  BVA  - Mayer's bonded valence
  FA   - Mayer's free valence

  ATOM       NA         ZA         QA         VA         BVA        FA
  0 C      6.2660     6.0000    -0.2660     3.0519     3.0519     0.0000
  1 N      6.9766     7.0000     0.0234     2.6895     2.6895     0.0000
  2 H      0.7574     1.0000     0.2426     0.9928     0.9928     0.0000

  Mayer bond orders larger than 0.100000
B(  0-C ,  1-N ) :   2.3743 B(  0-C ,  2-H ) :   0.6776 B(  1-N ,  2-H ) :   0.3152 


-------
TIMINGS
-------

Total SCF time: 0 days 0 hours 0 min 2 sec 

Total time                  ....       2.002 sec
Sum of individual times     ....       1.842 sec  ( 92.0%)

Fock matrix formation       ....       1.582 sec  ( 79.0%)
  Split-RI-J                ....       0.159 sec  ( 10.1% of F)
  Chain of spheres X        ....       0.778 sec  ( 49.2% of F)
  XC integration            ....       0.353 sec  ( 22.3% of F)
    Basis function eval.    ....       0.046 sec  ( 13.0% of XC)
    Density eval.           ....       0.044 sec  ( 12.5% of XC)
    XC-Functional eval.     ....       0.029 sec  (  8.2% of XC)
    XC-Potential eval.      ....       0.035 sec  (  9.9% of XC)
Diagonalization             ....       0.022 sec  (  1.1%)
Density matrix formation    ....       0.002 sec  (  0.1%)
Population analysis         ....       0.013 sec  (  0.6%)
Initial guess               ....       0.018 sec  (  0.9%)
Orbital Transformation      ....       0.000 sec  (  0.0%)
Orbital Orthonormalization  ....       0.000 sec  (  0.0%)
DIIS solution               ....       0.016 sec  (  0.8%)
SOSCF solution              ....       0.032 sec  (  1.6%)
Grid generation             ....       0.157 sec  (  7.8%)

Maximum memory used throughout the entire SCF-calculation: 58.4 MB

-------------------------   --------------------
FINAL SINGLE POINT ENERGY       -93.263357963443
-------------------------   --------------------



           ************************************************************
           *        Program running with 5 parallel MPI-processes     *
           *              working on a common directory               *
           ************************************************************
------------------------------------------------------------------------------
                         ORCA SCF GRADIENT CALCULATION
------------------------------------------------------------------------------

 ... reading COSX grid (gridx3)
Gradient of the Kohn-Sham DFT energy:
Kohn-Sham wavefunction type      ... RKS
Hartree-Fock exchange scaling    ...    0.250
Number of operators              ...    1
Number of atoms                  ...    3
Basis set dimensions             ...   68
Integral neglect threshold       ... 2.5e-11
Integral primitive cutoff        ... 2.5e-12
SHARK Integral package           ... ON

Nuc. rep. gradient       (SHARK) ... done (  0.0 sec)
HCore & Overlap gradient (SHARK) ... done (  0.0 sec)
RI-J gradient            (SHARK) ... done (  0.0 sec)
COSX-gradient                    ... done (  0.1 sec)
Exchange-correlation gradient    ... done

------------------
CARTESIAN GRADIENT
------------------

   1   C   :   -0.068632180    0.003399100   -0.030118448
   2   N   :   -0.004076180    0.000202227    0.047689644
   3   H   :    0.072675433   -0.003597671   -0.017623548

Difference to translation invariance:
           :   -0.0000329267    0.0000036551   -0.0000523514

Difference to rotation invariance:
           :   -0.0000980634   -0.0001154139    0.0000443501

Norm of the cartesian gradient     ...    0.1162981535
RMS gradient                       ...    0.0387660512
MAX gradient                       ...    0.0726754330

-------
TIMINGS
-------

Total SCF gradient time            ...        0.338 sec

One electron gradient       ....       0.003 sec  (  0.9%)
RI-J Coulomb gradient       ....       0.045 sec  ( 13.3%)
COSX gradient               ....       0.123 sec  ( 36.4%)
XC gradient                 ....       0.051 sec  ( 15.1%)

Maximum memory used throughout the entire SCFGRAD-calculation: 33.5 MB

                            ***************************************
                            *     ORCA property calculations      *
                            ***************************************

                                    ---------------------
                                    Active property flags
                                    ---------------------
   (+) Dipole Moment
   (+) Chemical Shifts
   (+) Nuclear properties (Hyperfine,Quadrupole)


------------------------------------------------------------------------------
                       ORCA ELECTRIC PROPERTIES CALCULATION
------------------------------------------------------------------------------

Dipole Moment Calculation                       ... on
Quadrupole Moment Calculation                   ... off
Polarizability Calculation                      ... off
GBWName                                         ... HCN_75.gbw
Electron density                                ... HCN_75.scfp
The origin for moment calculation is the CENTER OF MASS  = (-2.274284,  1.833917 -1.095831)

-------------
DIPOLE MOMENT
-------------
                                X             Y             Z
Electronic contribution:      0.41248      -0.02043      -0.36649
Nuclear contribution   :     -0.81187       0.04025       0.54107
                        -----------------------------------------
Total Dipole Moment    :     -0.39939       0.01982       0.17458
                        -----------------------------------------
Magnitude (a.u.)       :      0.43633
Magnitude (Debye)      :      1.10906



--------------------
Rotational spectrum 
--------------------
 
Rotational constants in cm-1:    16.852598     1.916725     1.720989 
Rotational constants in MHz : 505228.176075 57461.976272 51593.953340 

 Dipole components along the rotational axes: 
x,y,z [a.u.] :     0.086153     0.427741    -0.000021 
x,y,z [Debye]:     0.218983     1.087231    -0.000052 

 


           ************************************************************
           *        Program running with 5 parallel MPI-processes     *
           *              working on a common directory               *
           ************************************************************
------------------------------------------------------------------------------
                                ORCA EPR/NMR CALCULATION
------------------------------------------------------------------------------

GBWName                      ... HCN_75.gbw
Electron density             ... HCN_75.scfp
Spin density                 ... HCN_75.scfr
Treatment of gauge           ... GIAO (approximations 1/2el = 0,0)
Details of the CP(SCF) procedure:
       Solver   = POPLE   
       MaxIter  =    64   
       Tolerance=    1.000e-04
       COSX Grid=     1   
       Op-0     =   0-  6 =>   7- 67
Multiplicity                 ... 1
g-tensor                     ... 0
NMR chemical shifts          ... 1
NMR spin-spin couplings      ... 0
NMR spectrum                 ... 0
Number of nuclei for epr/nmr ... 3
   Nucleus:   1N 
       Hyperfine : Isotope=   14 I=   1.000 P=  38.568
       Quadrupole: Isotope=   14 I=   1.000 Q=   0.020
       Spin-Orbit: Zeff=   4.550
       Nuclear Spin-Spin: Gn=   0.000
       EPRNMR Input: 
       rho(0)=N f(grad)=N a(iso)=N a(dip)=N a(orb)=N sigma(nmr)=Y spin-spin(nmr)=all-N,DSO-N,PSO-N,FC-N,SD-N
   Nucleus:   0C 
       Hyperfine : Isotope=   13 I=   0.500 P= 134.190
       Quadrupole: Isotope=   13 I=   0.500 Q=   0.000
       Spin-Orbit: Zeff=   3.600
       Nuclear Spin-Spin: Gn=   0.000
       EPRNMR Input: 
       rho(0)=N f(grad)=N a(iso)=N a(dip)=N a(orb)=N sigma(nmr)=Y spin-spin(nmr)=all-N,DSO-N,PSO-N,FC-N,SD-N
   Nucleus:   2H 
       Hyperfine : Isotope=    1 I=   0.500 P= 533.551
       Quadrupole: Isotope=    2 I=   1.000 Q=   0.003
       Spin-Orbit: Zeff=   1.000
       Nuclear Spin-Spin: Gn=   0.000
       EPRNMR Input: 
       rho(0)=N f(grad)=N a(iso)=N a(dip)=N a(orb)=N sigma(nmr)=Y spin-spin(nmr)=all-N,DSO-N,PSO-N,FC-N,SD-N
Forming RHS of the CP-SCF equations         ... 
Calculating right hand sides for GIAO treatment        ... 
  Entering RightHandSide GIAO. ScalHFX=    0.2500 NeedHFX=1
     -> 1-electron GIAO integrals will be done analytically
     -> RIJCOSX used in SCF. Same chosen for GIAO calculation.
     Making grid for GIAO integrations   ...

GRID GIAO
---------

General Integration Accuracy     IntAcc      ... 4.388
Radial Grid Type                 RadialGrid  ... OptM3 with GC (2021)
Angular Grid (max. ang.)         AngularGrid ... 4 (Lebedev-302)
Angular grid pruning method      GridPruning ... 4 (adaptive)
Weight generation scheme         WeightScheme... Becke
Basis function cutoff            BFCut       ... 1.0000e-11
Integration weight cutoff        WCut        ... 1.0000e-14
Angular grids for H and He will be reduced by one unit
Partially contracted basis set               ... off
Rotationally invariant grid construction     ... off

Total number of grid points                  ...    15553
Total number of batches                      ...      244
Average number of points per batch           ...       63
Average number of grid points per atom       ...     5184

  One-electron GIAO integrals (SHARK)     ... done
  Calculating G(B)[P]                     ... (RI-J: SHARK-ok) (COSX-ok) (add-J+K:ok) => dG/dB done
  DFT XC-terms                            ... done
  Extracting occupied and virtual blocks  ... 
  Operator  0  NO=   7 NV=  61 
  Transforming and RHS contribution       ... done
  Adding eps_i * S(B)_ai terms            ... done
  Projecting overlap derivatives          ... done
  Building G[dS/dB_ij] (COSX)             ... done
  Transforming to MO basis                ... done
  Summing G[dS/dB_ij] into RHS contribs.  ... done

  GIAO profiling information: 
    Total GIAO time               ...       0.3 sec
       GIAO 1-electron integrals  ...       0.0 sec (  0.6%)
       GIAO G(dS/dB) terms        ...       0.1 sec ( 17.4%)
       GIAO RI-J                  ...       0.0 sec (  7.8%)
       GIAO COSX                  ...       0.1 sec ( 24.6%)
       GIAO XC-terms              ...       0.1 sec ( 30.5%)
       Right hand side assembly   ...       0.0 sec (  0.6%)

  GIAO right hand side done


------------------------------------------------------------------------------
                           ORCA CP-SCF CALCULATION
------------------------------------------------------------------------------

Input orbitals are from        ... HCN_75.gbw
Input Perturbation             ... HCN_75.pin.tmp
Wavefunction output            ... HCN_75.pout.tmp
Perturbation mode              ... Imaginary perturbation
Solver                         ... POPLE
Max. number of iterations      ... 64
Convergence tolerance          ... 1.000e-04
Integral handling              ... Direct
DFT GridXC                     ... 1
COSX GridX                     ... 1
COSX IntAccX                   ... 3.067
COSX Algorithm                 ... Auto
Number of perturbations        ... 3
Number of operators            ... 1
Orbital ranges used for CP-SCF:
 Operator 0:  Orbitals   0...  6  to   7... 67
Variables per perturbation     ... 427
DFT calculation                         ... on
XC functional terms                     ... off
Hybrid DFT                              ... on
   Exchange mixing (SCF)                ...  0.250
   Exchange mixing (CP-SCF)             ...  0.250
   GGA exch. scaling(SCF)               ...  0.750
   GGA exch. scaling (CP-SCF)           ...  0.750
   GGA corr. scaling (SCF)              ...  1.000
   GGA corr. scaling (CP-SCF)           ...  1.000

CP-SCF GRID
-----------

General Integration Accuracy     IntAcc      ... 3.467
Radial Grid Type                 RadialGrid  ... OptM3 with GC (2021)
Angular Grid (max. ang.)         AngularGrid ... 1 (Lebedev-50)
Angular grid pruning method      GridPruning ... 4 (adaptive)
Weight generation scheme         WeightScheme... Becke
Basis function cutoff            BFCut       ... 1.0000e-11
Integration weight cutoff        WCut        ... 1.0000e-14
Angular grids for H and He will be reduced by one unit
Partially contracted basis set               ... off
Rotationally invariant grid construction     ... off

Total number of grid points                  ...     2362
Total number of batches                      ...       38
Average number of points per batch           ...       62
Average number of grid points per atom       ...      787

CP-SCF GRIDX
------------

General Integration Accuracy     IntAcc      ... 3.067
Radial Grid Type                 RadialGrid  ... OptM3 with GC (2021)
Angular Grid (max. ang.)         AngularGrid ... 1 (Lebedev-50)
Angular grid pruning method      GridPruning ... 4 (adaptive)
Weight generation scheme         WeightScheme... Becke
Basis function cutoff            BFCut       ... 1.0000e-11
Integration weight cutoff        WCut        ... 1.0000e-14
Angular grids for H and He will be reduced by one unit
Partially contracted basis set               ... on
Rotationally invariant grid construction     ... off

Total number of grid points                  ...     1053
Total number of batches                      ...       17
Average number of points per batch           ...       61
Average number of grid points per atom       ...      351

Memory available               ... 1015.8 MB
Memory needed per perturbation ...   0.2 MB
Perturbations treated per batch... 3
Number of batches              ... 1
     CP-SCF ITERATION   0:   4.9078e-01 (   0.0 sec   0/  3 done)
     CP-SCF ITERATION   1:   1.6022e-02 (   0.0 sec   0/  3 done)
     CP-SCF ITERATION   2:   1.4439e-03 (   0.0 sec   0/  3 done)
     CP-SCF ITERATION   3:   1.5708e-04 (   0.0 sec   2/  3 done)
     CP-SCF ITERATION   4:   8.9586e-06 (   0.0 sec   3/  3 done)
                    *** THE CP-SCF HAS CONVERGED ***

Forming final perturbed densities           ... done
Transforming perturbed density to AO basis  ... done

Magnetic field perturbation calculated in  0.702 sec

---------------
CHEMICAL SHIFTS
---------------

Note: using conversion factor for au to ppm alpha^2/2 =   26.625677252 
GIAO: Analytic para- and diamagnetic shielding integrals (SHARK)       ...done
 --------------
 Nucleus   1N :
 --------------

Diamagnetic contribution to the shielding tensor (ppm) : 
           319.919         -4.664         8.143
            -0.390        312.421        -0.405
             5.001          5.194       333.144

Paramagnetic contribution to the shielding tensor (ppm): 
          -618.130         -8.583       -47.839
           -12.849       -877.315         2.386
            69.210         -8.848      -102.135

Total shielding tensor (ppm): 
          -298.211        -13.246       -39.696
           -13.238       -564.895         1.981
            74.211         -3.654       231.009


 Diagonalized sT*s matrix:
 
 sDSO           324.937          328.358          312.189  iso=     321.828
 sPSO          -224.733         -495.108         -877.740  iso=    -532.527
        ---------------  ---------------  ---------------
 Total          100.204         -166.750         -565.551  iso=    -210.699

 --------------
 Nucleus   0C :
 --------------

Diamagnetic contribution to the shielding tensor (ppm) : 
           258.743         -7.515         5.514
            -0.677        245.392        -0.276
             0.452         -5.505       270.824

Paramagnetic contribution to the shielding tensor (ppm): 
          -379.637         11.127       108.475
             4.298       -293.477        -5.365
            57.493          2.641        -0.569

Total shielding tensor (ppm): 
          -120.894          3.612       113.989
             3.621        -48.085        -5.641
            57.945         -2.865       270.254


 Diagonalized sT*s matrix:
 
 sDSO           245.020          258.954          270.985  iso=     258.320
 sPSO          -292.926         -384.436            3.679  iso=    -224.561
        ---------------  ---------------  ---------------
 Total          -47.906         -125.483          274.664  iso=      33.758

 --------------
 Nucleus   2H :
 --------------

Diamagnetic contribution to the shielding tensor (ppm) : 
            39.031         -9.793        -5.753
            -1.403         11.184         0.287
            -6.058          2.524        28.116

Paramagnetic contribution to the shielding tensor (ppm): 
           -17.011         10.555        -0.983
             2.165         26.146         0.047
             5.969         -2.521         1.171

Total shielding tensor (ppm): 
            22.019          0.762        -6.736
             0.761         37.330         0.334
            -0.089          0.004        29.287


 Diagonalized sT*s matrix:
 
 sDSO            34.964           32.669           10.697  iso=      26.110
 sPSO           -14.290           -2.074           26.670  iso=       3.435
        ---------------  ---------------  ---------------
 Total           20.674           30.595           37.368  iso=      29.545



--------------------------------
CHEMICAL SHIELDING SUMMARY (ppm)
--------------------------------


  Nucleus  Element    Isotropic     Anisotropy
  -------  -------  ------------   ------------
      1       N         -210.699       -532.277 
      0       C           33.758        361.358 
      2       H           29.545         11.733 



Maximum memory used throughout the entire EPRNMR-calculation: 10.2 MB

----------------------------------------------------------------------------
                           ORCA NUMERICAL FREQUENCIES
                              (5-process run)
----------------------------------------------------------------------------

Number of atoms                ... 3
Central differences            ... used
Number of displacements        ... 18
Numerical increment            ... 5.000e-03 bohr
IR-spectrum generation         ... on
Raman-spectrum generation      ... off
Surface Crossing Hessian       ... off

The output will be reduced. Please look at the following files:
SCF program output             ... >HCN_75.lastscf
Integral program output        ... >HCN_75.lastint
Gradient program output        ... >HCN_75.lastgrad
Dipole moment program output   ... >HCN_75.lastmom
AutoCI program output          ... >HCN_75.lastautoci

	<< Calculating on displaced geometry   5 (of  18) >>
	<< Calculating on displaced geometry   3 (of  18) >>
	<< Calculating on displaced geometry   4 (of  18) >>
	<< Calculating on displaced geometry   1 (of  18) >>
	<< Calculating on displaced geometry   2 (of  18) >>
	<< Calculating on displaced geometry   8 (of  18) >>
	<< Calculating on displaced geometry   6 (of  18) >>
	<< Calculating on displaced geometry   7 (of  18) >>
	<< Calculating on displaced geometry   9 (of  18) >>
	<< Calculating on displaced geometry  10 (of  18) >>
	<< Calculating on displaced geometry  11 (of  18) >>
	<< Calculating on displaced geometry  12 (of  18) >>
	<< Calculating on displaced geometry  14 (of  18) >>
	<< Calculating on displaced geometry  13 (of  18) >>
	<< Calculating on displaced geometry  15 (of  18) >>
	<< Calculating on displaced geometry  16 (of  18) >>
	<< Calculating on displaced geometry  17 (of  18) >>
	<< Calculating on displaced geometry  18 (of  18) >>

-----------------------
VIBRATIONAL FREQUENCIES
-----------------------

Scaling factor for frequencies =  1.000000000 (already applied!)

   0:         0.00 cm**-1
   1:         0.00 cm**-1
   2:         0.00 cm**-1
   3:         0.00 cm**-1
   4:         0.00 cm**-1
   5:         0.00 cm**-1
   6:     -1390.96 cm**-1 ***imaginary mode***
   7:      2235.15 cm**-1
   8:      3596.98 cm**-1


------------
NORMAL MODES
------------

These modes are the cartesian displacements weighted by the diagonal matrix
M(i,i)=1/sqrt(m[i]) where m[i] is the mass of the displaced atom
Thus, these vectors are normalized but *not* orthogonal

                  0          1          2          3          4          5    
      0       0.000000   0.000000   0.000000   0.000000   0.000000   0.000000
      1       0.000000   0.000000   0.000000   0.000000   0.000000   0.000000
      2       0.000000   0.000000   0.000000   0.000000   0.000000   0.000000
      3       0.000000   0.000000   0.000000   0.000000   0.000000   0.000000
      4       0.000000   0.000000   0.000000   0.000000   0.000000   0.000000
      5       0.000000   0.000000   0.000000   0.000000   0.000000   0.000000
      6       0.000000   0.000000   0.000000   0.000000   0.000000   0.000000
      7       0.000000   0.000000   0.000000   0.000000   0.000000   0.000000
      8       0.000000   0.000000   0.000000   0.000000   0.000000   0.000000
                  6          7          8    
      0      -0.074986   0.157541   0.072355
      1       0.003715  -0.007789  -0.003586
      2      -0.040527   0.696305  -0.007963
      3       0.057675  -0.143987   0.008881
      4      -0.002859   0.007119  -0.000440
      5      -0.036473  -0.616647  -0.003568
      6       0.092069   0.123619  -0.985566
      7      -0.004536  -0.006119   0.048848
      8       0.989727   0.271889   0.144465


-----------
IR SPECTRUM
-----------

 Mode   freq       eps      Int      T**2         TX        TY        TZ
       cm**-1   L/(mol*cm) km/mol    a.u.
----------------------------------------------------------------------------
  7:   2235.15   0.000912    4.61  0.000127  ( 0.011176 -0.000556 -0.001468)
  8:   3596.98   0.029361  148.38  0.002547  (-0.045337  0.002273  0.022060)

* The epsilon (eps) is given for a Dirac delta lineshape.
** The dipole moment derivative (T) already includes vibrational overlap.

The first frequency considered to be a vibration is 7
The total number of vibrations considered is 2


--------------------------
THERMOCHEMISTRY AT 298.15K
--------------------------

Temperature         ... 298.15 K
Pressure            ... 1.00 atm
Total Mass          ... 27.03 AMU

Throughout the following assumptions are being made:
  (1) The electronic state is orbitally nondegenerate
  (2) There are no thermally accessible electronically excited states
  (3) Hindered rotations indicated by low frequency modes are not
      treated as such but are treated as vibrations and this may
      cause some error
  (4) All equations used are the standard statistical mechanics
      equations for an ideal gas
  (5) All vibrations are strictly harmonic

freq.    2235.15  E(vib)   ...       0.00 
freq.    3596.98  E(vib)   ...       0.00 

------------
INNER ENERGY
------------

The inner energy is: U= E(el) + E(ZPE) + E(vib) + E(rot) + E(trans)
    E(el)   - is the total energy from the electronic structure calculation
              = E(kin-el) + E(nuc-el) + E(el-el) + E(nuc-nuc)
    E(ZPE)  - the the zero temperature vibrational energy from the frequency calculation
    E(vib)  - the the finite temperature correction to E(ZPE) due to population
              of excited vibrational states
    E(rot)  - is the rotational thermal energy
    E(trans)- is the translational thermal energy

Summary of contributions to the inner energy U:
Electronic energy                ...    -93.26335796 Eh
Zero point energy                ...      0.01328657 Eh       8.34 kcal/mol
Thermal vibrational correction   ...      0.00000021 Eh       0.00 kcal/mol
Thermal rotational correction    ...      0.00141627 Eh       0.89 kcal/mol
Thermal translational correction ...      0.00141627 Eh       0.89 kcal/mol
-----------------------------------------------------------------------
Total thermal energy                    -93.24723864 Eh


Summary of corrections to the electronic energy:
(perhaps to be used in another calculation)
Total thermal correction                  0.00283275 Eh       1.78 kcal/mol
Non-thermal (ZPE) correction              0.01328657 Eh       8.34 kcal/mol
-----------------------------------------------------------------------
Total correction                          0.01611932 Eh      10.12 kcal/mol


--------
ENTHALPY
--------

The enthalpy is H = U + kB*T
                kB is Boltzmann's constant
Total free energy                 ...    -93.24723864 Eh 
Thermal Enthalpy correction       ...      0.00094421 Eh       0.59 kcal/mol
-----------------------------------------------------------------------
Total Enthalpy                    ...    -93.24629443 Eh


Note: Rotational entropy computed according to Herzberg 
Infrared and Raman Spectra, Chapter V,1, Van Nostrand Reinhold, 1945 
Point Group:  Cs, Symmetry Number:   1  
Rotational constants in cm-1:    16.852598     1.916725     1.720989 

Vibrational entropy computed according to the QRRHO of S. Grimme
Chem.Eur.J. 2012 18 9955


-------
ENTROPY
-------

The entropy contributions are T*S = T*(S(el)+S(vib)+S(rot)+S(trans))
     S(el)   - electronic entropy
     S(vib)  - vibrational entropy
     S(rot)  - rotational entropy
     S(trans)- translational entropy
The entropies will be listed as multiplied by the temperature to get
units of energy

Electronic entropy                ...      0.00000000 Eh      0.00 kcal/mol
Vibrational entropy               ...      0.00000023 Eh      0.00 kcal/mol
Rotational entropy                ...      0.00761394 Eh      4.78 kcal/mol
Translational entropy             ...      0.01701823 Eh     10.68 kcal/mol
-----------------------------------------------------------------------
Final entropy term                ...      0.02463240 Eh     15.46 kcal/mol

In case the symmetry of your molecule has not been determined correctly
or in case you have a reason to use a different symmetry number we print 
out the resulting rotational entropy values for sn=1,12 :
 --------------------------------------------------------
|  sn= 1 | S(rot)=       0.00761394 Eh      4.78 kcal/mol|
|  sn= 2 | S(rot)=       0.00695948 Eh      4.37 kcal/mol|
|  sn= 3 | S(rot)=       0.00657665 Eh      4.13 kcal/mol|
|  sn= 4 | S(rot)=       0.00630503 Eh      3.96 kcal/mol|
|  sn= 5 | S(rot)=       0.00609434 Eh      3.82 kcal/mol|
|  sn= 6 | S(rot)=       0.00592220 Eh      3.72 kcal/mol|
|  sn= 7 | S(rot)=       0.00577665 Eh      3.62 kcal/mol|
|  sn= 8 | S(rot)=       0.00565057 Eh      3.55 kcal/mol|
|  sn= 9 | S(rot)=       0.00553936 Eh      3.48 kcal/mol|
|  sn=10 | S(rot)=       0.00543988 Eh      3.41 kcal/mol|
|  sn=11 | S(rot)=       0.00534989 Eh      3.36 kcal/mol|
|  sn=12 | S(rot)=       0.00526774 Eh      3.31 kcal/mol|
 --------------------------------------------------------


-------------------
GIBBS FREE ENERGY
-------------------

The Gibbs free energy is G = H - T*S

Total enthalpy                    ...    -93.24629443 Eh 
Total entropy correction          ...     -0.02463240 Eh    -15.46 kcal/mol
-----------------------------------------------------------------------
Final Gibbs free energy         ...    -93.27092684 Eh

For completeness - the Gibbs free energy minus the electronic energy
G-E(el)                           ...     -0.00756887 Eh     -4.75 kcal/mol



Timings for individual modules:

Sum of individual times         ...       72.791 sec (=   1.213 min)
GTO integral calculation        ...        4.480 sec (=   0.075 min)   6.2 %
SCF iterations                  ...        7.439 sec (=   0.124 min)  10.2 %
EPR/NMR calculation             ...        2.356 sec (=   0.039 min)   3.2 %
SCF Gradient evaluation         ...        3.960 sec (=   0.066 min)   5.4 %
Numerical frequency calculation ...       54.556 sec (=   0.909 min)  74.9 %
                             ****ORCA TERMINATED NORMALLY****
TOTAL RUN TIME: 0 days 0 hours 1 minutes 6 seconds 6 msec
