
                                 *****************
                                 * O   R   C   A *
                                 *****************

                                            #,                                       
                                            ###                                      
                                            ####                                     
                                            #####                                    
                                            ######                                   
                                           ########,                                 
                                     ,,################,,,,,                         
                               ,,#################################,,                 
                          ,,##########################################,,             
                       ,#########################################, ''#####,          
                    ,#############################################,,   '####,        
                  ,##################################################,,,,####,       
                ,###########''''           ''''###############################       
              ,#####''   ,,,,##########,,,,          '''####'''          '####       
            ,##' ,,,,###########################,,,                        '##       
           ' ,,###''''                  '''############,,,                           
         ,,##''                                '''############,,,,        ,,,,,,###''
      ,#''                                            '''#######################'''  
     '                                                          ''''####''''         
             ,#######,   #######,   ,#######,      ##                                
            ,#'     '#,  ##    ##  ,#'     '#,    #''#        ######   ,####,        
            ##       ##  ##   ,#'  ##            #'  '#       #        #'  '#        
            ##       ##  #######   ##           ,######,      #####,   #    #        
            '#,     ,#'  ##    ##  '#,     ,#' ,#      #,         ##   #,  ,#        
             '#######'   ##     ##  '#######'  #'      '#     #####' # '####'        



                  #######################################################
                  #                        -***-                        #
                  #          Department of theory and spectroscopy      #
                  #    Directorship and core code : Frank Neese         #
                  #        Max Planck Institute fuer Kohlenforschung    #
                  #                Kaiser Wilhelm Platz 1               #
                  #                 D-45470 Muelheim/Ruhr               #
                  #                      Germany                        #
                  #                                                     #
                  #                  All rights reserved                #
                  #                        -***-                        #
                  #######################################################


                         Program Version 5.0.3 -  RELEASE  -


 With contributions from (in alphabetic order):
   Daniel Aravena         : Magnetic Suceptibility
   Michael Atanasov       : Ab Initio Ligand Field Theory (pilot matlab implementation)
   Alexander A. Auer      : GIAO ZORA, VPT2 properties, NMR spectrum
   Ute Becker             : Parallelization
   Giovanni Bistoni       : ED, misc. LED, open-shell LED, HFLD
   Martin Brehm           : Molecular dynamics
   Dmytro Bykov           : SCF Hessian
   Vijay G. Chilkuri      : MRCI spin determinant printing, contributions to CSF-ICE
   Dipayan Datta          : RHF DLPNO-CCSD density
   Achintya Kumar Dutta   : EOM-CC, STEOM-CC
   Dmitry Ganyushin       : Spin-Orbit,Spin-Spin,Magnetic field MRCI
   Miquel Garcia          : C-PCM and meta-GGA Hessian, CC/C-PCM, Gaussian charge scheme
   Yang Guo               : DLPNO-NEVPT2, F12-NEVPT2, CIM, IAO-localization
   Andreas Hansen         : Spin unrestricted coupled pair/coupled cluster methods
   Benjamin Helmich-Paris : MC-RPA, TRAH-SCF, COSX integrals
   Lee Huntington         : MR-EOM, pCC
   Robert Izsak           : Overlap fitted RIJCOSX, COSX-SCS-MP3, EOM
   Marcus Kettner         : VPT2
   Christian Kollmar      : KDIIS, OOCD, Brueckner-CCSD(T), CCSD density, CASPT2, CASPT2-K
   Simone Kossmann        : Meta GGA functionals, TD-DFT gradient, OOMP2, MP2 Hessian
   Martin Krupicka        : Initial AUTO-CI
   Lucas Lang             : DCDCAS
   Marvin Lechner         : AUTO-CI (C++ implementation), FIC-MRCC
   Dagmar Lenk            : GEPOL surface, SMD
   Dimitrios Liakos       : Extrapolation schemes; Compound Job, initial MDCI parallelization
   Dimitrios Manganas     : Further ROCIS development; embedding schemes
   Dimitrios Pantazis     : SARC Basis sets
   Anastasios Papadopoulos: AUTO-CI, single reference methods and gradients
   Taras Petrenko         : DFT Hessian,TD-DFT gradient, ASA, ECA, R-Raman, ABS, FL, XAS/XES, NRVS
   Peter Pinski           : DLPNO-MP2, DLPNO-MP2 Gradient
   Christoph Reimann      : Effective Core Potentials
   Marius Retegan         : Local ZFS, SOC
   Christoph Riplinger    : Optimizer, TS searches, QM/MM, DLPNO-CCSD(T), (RO)-DLPNO pert. Triples
   Tobias Risthaus        : Range-separated hybrids, TD-DFT gradient, RPA, STAB
   Michael Roemelt        : Original ROCIS implementation
   Masaaki Saitow         : Open-shell DLPNO-CCSD energy and density
   Barbara Sandhoefer     : DKH picture change effects
   Avijit Sen             : IP-ROCIS
   Kantharuban Sivalingam : CASSCF convergence, NEVPT2, FIC-MRCI
   Bernardo de Souza      : ESD, SOC TD-DFT
   Georgi Stoychev        : AutoAux, RI-MP2 NMR, DLPNO-MP2 response
   Willem Van den Heuvel  : Paramagnetic NMR
   Boris Wezisla          : Elementary symmetry handling
   Frank Wennmohs         : Technical directorship


 We gratefully acknowledge several colleagues who have allowed us to
 interface, adapt or use parts of their codes:
   Stefan Grimme, W. Hujo, H. Kruse, P. Pracht,  : VdW corrections, initial TS optimization,
                  C. Bannwarth, S. Ehlert          DFT functionals, gCP, sTDA/sTD-DF
   Ed Valeev, F. Pavosevic, A. Kumar             : LibInt (2-el integral package), F12 methods
   Garnet Chan, S. Sharma, J. Yang, R. Olivares  : DMRG
   Ulf Ekstrom                                   : XCFun DFT Library
   Mihaly Kallay                                 : mrcc  (arbitrary order and MRCC methods)
   Jiri Pittner, Ondrej Demel                    : Mk-CCSD
   Frank Weinhold                                : gennbo (NPA and NBO analysis)
   Christopher J. Cramer and Donald G. Truhlar   : smd solvation model
   Lars Goerigk                                  : TD-DFT with DH, B97 family of functionals
   V. Asgeirsson, H. Jonsson                     : NEB implementation
   FAccTs GmbH                                   : IRC, NEB, NEB-TS, DLPNO-Multilevel, CI-OPT
                                                   MM, QMMM, 2- and 3-layer-ONIOM, Crystal-QMMM,
                                                   LR-CPCM, SF, NACMEs, symmetry and pop. for TD-DFT,
                                                   nearIR, NL-DFT gradient (VV10), updates on ESD,
                                                   ML-optimized integration grids
   S Lehtola, MJT Oliveira, MAL Marques          : LibXC Library
   Liviu Ungur et al                             : ANISO software


 Your calculation uses the libint2 library for the computation of 2-el integrals
 For citations please refer to: http://libint.valeyev.net

 Your ORCA version has been built with support for libXC version: 5.1.0
 For citations please refer to: https://tddft.org/programs/libxc/

 This ORCA versions uses:
   CBLAS   interface :  Fast vector & matrix operations
   LAPACKE interface :  Fast linear algebra routines
   Shared memory     :  Shared parallel matrices


SCAN-COORDS
================================================================================

----- Orbital basis set information -----
Your calculation utilizes the basis: def2-TZVP
   F. Weigend and R. Ahlrichs, Phys. Chem. Chem. Phys. 7, 3297 (2005).

----- AuxJ basis set information -----
Your calculation utilizes the auxiliary basis: def2/J
   F. Weigend, Phys. Chem. Chem. Phys. 8, 1057 (2006).

================================================================================
                                        WARNINGS
                       Please study these warnings very carefully!
================================================================================

WARNING: Gradients needed for Numerical Frequencies
  ===> : Setting RunTyp to EnGrad

WARNING: The environment variable RSH_COMMAND is not set!
  ===> : All Displacements for the Numerical Hessian or Gradient calculation
         will be started on localhost

INFO   : the flag for use of the SHARK integral package has been found!

================================================================================
                                       INPUT FILE
================================================================================
NAME = CNH_105.inp
|  1> ! PAL5 PBE0 NumFreq
|  2> %method
|  3>         method DFT
|  4>         runtyp Energy
|  5> end
|  6> %basis
|  7>         basis "def2-TZVP"
|  8> end
|  9> %coords
| 10>         CTyp xyz
| 11>         Charge 0
| 12>         Mult 1
| 13>         Units Angs
| 14>         coords
| 15> 	#105
| 16> 	N     -1.011290    0.960957    0.000001
| 17> 	C     -0.708861    0.946003   -1.116832
| 18> 	H     -2.068270    1.013340    0.000003
| 19> 	end
| 20> end
| 21> %eprnmr
| 22>         NMRShielding 1
| 23>         Nuclei = all N {shift}
| 24>         Nuclei = all C {shift}
| 25>         Nuclei = all H {shift}
| 26> endd                         ****END OF INPUT****
================================================================================

                     *******************************
                     * Energy+Gradient Calculation *
                     *******************************

---------------------------------
CARTESIAN COORDINATES (ANGSTROEM)
---------------------------------
  N     -1.011290    0.960957    0.000001
  C     -0.708861    0.946003   -1.116832
  H     -2.068270    1.013340    0.000003

----------------------------
CARTESIAN COORDINATES (A.U.)
----------------------------
  NO LB      ZA    FRAG     MASS         X           Y           Z
   0 N     7.0000    0    14.007   -1.911061    1.815946    0.000002
   1 C     6.0000    0    12.011   -1.339553    1.787687   -2.110507
   2 H     1.0000    0     1.008   -3.908464    1.914935    0.000006

--------------------------------
INTERNAL COORDINATES (ANGSTROEM)
--------------------------------
 N      0   0   0     0.000000000000     0.00000000     0.00000000
 C      1   0   0     1.157152916449     0.00000000     0.00000000
 H      1   2   0     1.058277231680   105.16960753     0.00000000

---------------------------
INTERNAL COORDINATES (A.U.)
---------------------------
 N      0   0   0     0.000000000000     0.00000000     0.00000000
 C      1   0   0     2.186702107157     0.00000000     0.00000000
 H      1   2   0     1.999854141640   105.16960753     0.00000000

---------------------
BASIS SET INFORMATION
---------------------
There are 3 groups of distinct atoms

 Group   1 Type N   : 11s6p2d1f contracted to 5s3p2d1f pattern {62111/411/11/1}
 Group   2 Type C   : 11s6p2d1f contracted to 5s3p2d1f pattern {62111/411/11/1}
 Group   3 Type H   : 5s1p contracted to 3s1p pattern {311/1}

Atom   0N    basis set group =>   1
Atom   1C    basis set group =>   2
Atom   2H    basis set group =>   3
---------------------------------
AUXILIARY/J BASIS SET INFORMATION
---------------------------------
There are 3 groups of distinct atoms

 Group   1 Type N   : 12s5p4d2f1g contracted to 6s4p3d1f1g pattern {711111/2111/211/2/1}
 Group   2 Type C   : 12s5p4d2f1g contracted to 6s4p3d1f1g pattern {711111/2111/211/2/1}
 Group   3 Type H   : 5s2p1d contracted to 3s1p1d pattern {311/2/1}

Atom   0N    basis set group =>   1
Atom   1C    basis set group =>   2
Atom   2H    basis set group =>   3


           ************************************************************
           *        Program running with 5 parallel MPI-processes     *
           *              working on a common directory               *
           ************************************************************
------------------------------------------------------------------------------
                           ORCA GTO INTEGRAL CALCULATION
                           -- RI-GTO INTEGRALS CHOSEN --
------------------------------------------------------------------------------
------------------------------------------------------------------------------
                   ___                                                        
                  /   \      - P O W E R E D   B Y -                         
                 /     \                                                     
                 |  |  |   _    _      __       _____    __    __             
                 |  |  |  | |  | |    /  \     |  _  \  |  |  /  |          
                  \  \/   | |  | |   /    \    | | | |  |  | /  /          
                 / \  \   | |__| |  /  /\  \   | |_| |  |  |/  /          
                |  |  |   |  __  | /  /__\  \  |    /   |      \           
                |  |  |   | |  | | |   __   |  |    \   |  |\   \          
                \     /   | |  | | |  |  |  |  | |\  \  |  | \   \       
                 \___/    |_|  |_| |__|  |__|  |_| \__\ |__|  \__/        
                                                                              
                      - O R C A' S   B I G   F R I E N D -                    
                                      &                                       
                       - I N T E G R A L  F E E D E R -                       
                                                                              
 v1 FN, 2020, v2 2021                                                         
------------------------------------------------------------------------------


Reading SHARK input file CNH_105.SHARKINP.tmp ... ok
----------------------
SHARK INTEGRAL PACKAGE
----------------------

Number of atoms                             ...      3
Number of basis functions                   ...     68
Number of shells                            ...     26
Maximum angular momentum                    ...      3
Integral batch strategy                     ... SHARK/LIBINT Hybrid
RI-J (if used) integral strategy            ... SPLIT-RIJ (Revised 2003 algorithm where possible)
Printlevel                                  ...      1
Contraction scheme used                     ... SEGMENTED contraction
Coulomb Range Separation                    ... NOT USED
Exchange Range Separation                   ... NOT USED
Finite Nucleus Model                        ... NOT USED
Auxiliary Coulomb fitting basis             ... AVAILABLE
   # of basis functions in Aux-J            ...    109
   # of shells in Aux-J                     ...     35
   Maximum angular momentum in Aux-J        ...      4
Auxiliary J/K fitting basis                 ... NOT available
Auxiliary Correlation fitting basis         ... NOT available
Auxiliary 'external' fitting basis          ... NOT available
Integral threshold                          ...     2.500000e-11
Primitive cut-off                           ...     2.500000e-12
Primitive pair pre-selection threshold      ...     2.500000e-12

Calculating pre-screening integrals         ... done (  0.0 sec) Dimension = 26
Organizing shell pair data                  ... done (  0.0 sec)
Shell pair information
Total number of shell pairs                 ...       351
Shell pairs after pre-screening             ...       350
Total number of primitive shell pairs       ...      1128
Primitive shell pairs kept                  ...      1033
          la=0 lb=0:     90 shell pairs
          la=1 lb=0:     91 shell pairs
          la=1 lb=1:     28 shell pairs
          la=2 lb=0:     52 shell pairs
          la=2 lb=1:     28 shell pairs
          la=2 lb=2:     10 shell pairs
          la=3 lb=0:     26 shell pairs
          la=3 lb=1:     14 shell pairs
          la=3 lb=2:      8 shell pairs
          la=3 lb=3:      3 shell pairs

Calculating one electron integrals          ... done (  0.0 sec)
Calculating RI/J V-Matrix + Cholesky decomp.... done (  0.0 sec)
Calculating Nuclear repulsion               ... done (  0.0 sec) ENN=     24.510620144893 Eh

SHARK setup successfully completed in   0.1 seconds

Maximum memory used throughout the entire GTOINT-calculation: 14.0 MB


           ************************************************************
           *        Program running with 5 parallel MPI-processes     *
           *              working on a common directory               *
           ************************************************************
-------------------------------------------------------------------------------
                                 ORCA SCF
-------------------------------------------------------------------------------

------------
SCF SETTINGS
------------
Hamiltonian:
 Density Functional     Method          .... DFT(GTOs)
 Exchange Functional    Exchange        .... PBE
   PBE kappa parameter   XKappa         ....  0.804000
   PBE mue parameter    XMuePBE         ....  0.219520
 Correlation Functional Correlation     .... PBE
   PBE beta parameter  CBetaPBE         ....  0.066725
 LDA part of GGA corr.  LDAOpt          .... PW91-LDA
 Gradients option       PostSCFGGA      .... off
 Hybrid DFT is turned on
   Fraction HF Exchange ScalHFX         ....  0.250000
   Scaling of DF-GGA-X  ScalDFX         ....  0.750000
   Scaling of DF-GGA-C  ScalDFC         ....  1.000000
   Scaling of DF-LDA-C  ScalLDAC        ....  1.000000
   Perturbative correction              ....  0.000000
   Density functional embedding theory  .... OFF
   NL short-range parameter             ....  6.900000
 RI-approximation to the Coulomb term is turned on
   Number of AuxJ basis functions       .... 109
   RIJ-COSX (HFX calculated with COS-X)).... on


General Settings:
 Integral files         IntName         .... CNH_105
 Hartree-Fock type      HFTyp           .... RHF
 Total Charge           Charge          ....    0
 Multiplicity           Mult            ....    1
 Number of Electrons    NEL             ....   14
 Basis Dimension        Dim             ....   68
 Nuclear Repulsion      ENuc            ....     24.5106201449 Eh

Convergence Acceleration:
 DIIS                   CNVDIIS         .... on
   Start iteration      DIISMaxIt       ....    12
   Startup error        DIISStart       ....  0.200000
   # of expansion vecs  DIISMaxEq       ....     5
   Bias factor          DIISBfac        ....   1.050
   Max. coefficient     DIISMaxC        ....  10.000
 Trust-Rad. Augm. Hess. CNVTRAH         .... auto
   Auto Start mean grad. ratio tolernc. ....  1.125000
   Auto Start start iteration           ....    20
   Auto Start num. interpolation iter.  ....    10
   Max. Number of Micro iterations      ....    16
   Max. Number of Macro iterations      .... Maxiter - #DIIS iter
   Number of Davidson start vectors     ....     2
   Converg. threshold I  (grad. norm)   ....   1.000e-05
   Converg. threshold II (energy diff.) ....   1.000e-08
   Grad. Scal. Fac. for Micro threshold ....   0.100
   Minimum threshold for Micro iter.    ....   0.010
   NR start threshold (gradient norm)   ....   0.001
   Initial trust radius                 ....   0.400
   Minimum AH scaling param. (alpha)    ....   1.000
   Maximum AH scaling param. (alpha)    .... 1000.000
   Orbital update algorithm             .... Taylor
   White noise on init. David. guess    .... on
   Maximum white noise                  ....   0.010
   Quad. conv. algorithm                .... NR
 SOSCF                  CNVSOSCF        .... on
   Start iteration      SOSCFMaxIt      ....   150
   Startup grad/error   SOSCFStart      ....  0.003300
 Level Shifting         CNVShift        .... on
   Level shift para.    LevelShift      ....    0.2500
   Turn off err/grad.   ShiftErr        ....    0.0010
 Zerner damping         CNVZerner       .... off
 Static damping         CNVDamp         .... on
   Fraction old density DampFac         ....    0.7000
   Max. Damping (<1)    DampMax         ....    0.9800
   Min. Damping (>=0)   DampMin         ....    0.0000
   Turn off err/grad.   DampErr         ....    0.1000
 Fernandez-Rico         CNVRico         .... off

SCF Procedure:
 Maximum # iterations   MaxIter         ....   125
 SCF integral mode      SCFMode         .... Direct
   Integral package                     .... SHARK and LIBINT hybrid scheme
 Reset frequency        DirectResetFreq ....    20
 Integral Threshold     Thresh          ....  2.500e-11 Eh
 Primitive CutOff       TCut            ....  2.500e-12 Eh

Convergence Tolerance:
 Convergence Check Mode ConvCheckMode   .... Total+1el-Energy
 Convergence forced     ConvForced      .... 0
 Energy Change          TolE            ....  1.000e-08 Eh
 1-El. energy change                    ....  1.000e-05 Eh
 Orbital Gradient       TolG            ....  1.000e-05
 Orbital Rotation angle TolX            ....  1.000e-05
 DIIS Error             TolErr          ....  5.000e-07


Diagonalization of the overlap matrix:
Smallest eigenvalue                        ... 6.382e-04
Time for diagonalization                   ...    0.001 sec
Threshold for overlap eigenvalues          ... 1.000e-08
Number of eigenvalues below threshold      ... 0
Time for construction of square roots      ...    0.005 sec
Total time needed                          ...    0.006 sec

Time for model grid setup =    0.014 sec

------------------------------
INITIAL GUESS: MODEL POTENTIAL
------------------------------
Loading Hartree-Fock densities                     ... done
Calculating cut-offs                               ... done
Initializing the effective Hamiltonian             ... done
Setting up the integral package (SHARK)            ... done
Starting the Coulomb interaction                   ... done (   0.0 sec)
Reading the grid                                   ... done
Mapping shells                                     ... done
Starting the XC term evaluation                    ... done (   0.0 sec)
  promolecular density results
     # of electrons  =     13.999619607
     EX              =    -11.851937896
     EC              =     -0.434873911
     EX+EC           =    -12.286811807
Transforming the Hamiltonian                       ... done (   0.0 sec)
Diagonalizing the Hamiltonian                      ... done (   0.0 sec)
Back transforming the eigenvectors                 ... done (   0.0 sec)
Now organizing SCF variables                       ... done
                      ------------------
                      INITIAL GUESS DONE (   0.0 sec)
                      ------------------
-------------------
DFT GRID GENERATION
-------------------

General Integration Accuracy     IntAcc      ... 4.388
Radial Grid Type                 RadialGrid  ... OptM3 with GC (2021)
Angular Grid (max. ang.)         AngularGrid ... 4 (Lebedev-302)
Angular grid pruning method      GridPruning ... 4 (adaptive)
Weight generation scheme         WeightScheme... Becke
Basis function cutoff            BFCut       ... 1.0000e-11
Integration weight cutoff        WCut        ... 1.0000e-14
Angular grids for H and He will be reduced by one unit
Partially contracted basis set               ... off
Rotationally invariant grid construction     ... off

Total number of grid points                  ...    15549
Total number of batches                      ...      244
Average number of points per batch           ...       63
Average number of grid points per atom       ...     5183
Time for grid setup =    0.058 sec

--------------------
COSX GRID GENERATION
--------------------

GRIDX 1
-------
General Integration Accuracy     IntAcc      ... 3.816
Radial Grid Type                 RadialGrid  ... OptM3 with GC (2021)
Angular Grid (max. ang.)         AngularGrid ... 1 (Lebedev-50)
Angular grid pruning method      GridPruning ... 4 (adaptive)
Weight generation scheme         WeightScheme... Becke
Basis function cutoff            BFCut       ... 1.0000e-11
Integration weight cutoff        WCut        ... 1.0000e-14
Angular grids for H and He will be reduced by one unit
Partially contracted basis set               ... on
Rotationally invariant grid construction     ... off

Total number of grid points                  ...     1974
Total number of batches                      ...       33
Average number of points per batch           ...       59
Average number of grid points per atom       ...      658
UseSFitting                                  ... on

GRIDX 2
-------
General Integration Accuracy     IntAcc      ... 4.020
Radial Grid Type                 RadialGrid  ... OptM3 with GC (2021)
Angular Grid (max. ang.)         AngularGrid ... 2 (Lebedev-110)
Angular grid pruning method      GridPruning ... 4 (adaptive)
Weight generation scheme         WeightScheme... Becke
Basis function cutoff            BFCut       ... 1.0000e-11
Integration weight cutoff        WCut        ... 1.0000e-14
Angular grids for H and He will be reduced by one unit
Partially contracted basis set               ... on
Rotationally invariant grid construction     ... off

Total number of grid points                  ...     4572
Total number of batches                      ...       73
Average number of points per batch           ...       62
Average number of grid points per atom       ...     1524
UseSFitting                                  ... on

GRIDX 3
-------
General Integration Accuracy     IntAcc      ... 4.338
Radial Grid Type                 RadialGrid  ... OptM3 with GC (2021)
Angular Grid (max. ang.)         AngularGrid ... 3 (Lebedev-194)
Angular grid pruning method      GridPruning ... 4 (adaptive)
Weight generation scheme         WeightScheme... Becke
Basis function cutoff            BFCut       ... 1.0000e-11
Integration weight cutoff        WCut        ... 1.0000e-14
Angular grids for H and He will be reduced by one unit
Partially contracted basis set               ... on
Rotationally invariant grid construction     ... off

Total number of grid points                  ...    10181
Total number of batches                      ...      161
Average number of points per batch           ...       63
Average number of grid points per atom       ...     3394
UseSFitting                                  ... on

Time for X-Grid setup             =    0.084 sec

--------------
SCF ITERATIONS
--------------
ITER       Energy         Delta-E        Max-DP      RMS-DP      [F,P]     Damp
               ***  Starting incremental Fock matrix formation  ***
  0    -93.2293830496   0.000000000000 0.03875641  0.00177246  0.2423246 0.7000
  1    -93.2618849166  -0.032501867038 0.02300259  0.00121396  0.1143168 0.7000
                               ***Turning on DIIS***
  2    -93.2739287041  -0.012043787470 0.06130287  0.00219571  0.0391513 0.0000
  3    -93.2942513442  -0.020322640133 0.01631281  0.00083555  0.0528251 0.0000
  4    -93.2978584516  -0.003607107357 0.01055230  0.00037415  0.0160052 0.0000
                      *** Initiating the SOSCF procedure ***
                           *** Shutting down DIIS ***
                      *** Re-Reading the Fockian *** 
                      *** Removing any level shift *** 
ITER      Energy       Delta-E        Grad      Rot      Max-DP    RMS-DP
  5    -93.29826191  -0.0004034587  0.000562  0.000562  0.003104  0.000111
               *** Restarting incremental Fock matrix formation ***
  6    -93.29823900   0.0000229074  0.000295  0.000695  0.001389  0.000053
  7    -93.29823879   0.0000002115  0.000431  0.000375  0.000243  0.000015
  8    -93.29823973  -0.0000009350  0.000034  0.000064  0.000217  0.000008
  9    -93.29823974  -0.0000000147  0.000015  0.000020  0.000027  0.000001
 10    -93.29823974  -0.0000000028  0.000003  0.000009  0.000009  0.000000
                  ***Gradient check signals convergence***
              ***Rediagonalizing the Fockian in SOSCF/NRSCF***

               *****************************************************
               *                     SUCCESS                       *
               *           SCF CONVERGED AFTER  11 CYCLES          *
               *****************************************************

Old exchange energy                            =     -3.013824293 Eh
New exchange energy                            =     -3.013829243 Eh
Exchange energy change after final integration =     -0.000004950 Eh
Total energy after final integration           =    -93.298244694 Eh
Final COS-X integration done in                =     0.114 sec

----------------
TOTAL SCF ENERGY
----------------

Total Energy       :          -93.29824469 Eh           -2538.77431 eV

Components:
Nuclear Repulsion  :           24.51062014 Eh             666.96788 eV
Electronic Energy  :         -117.80886484 Eh           -3205.74219 eV
One Electron Energy:         -173.79866926 Eh           -4729.30222 eV
Two Electron Energy:           55.98980442 Eh            1523.56003 eV
Max COSX asymmetry :            0.00000097 Eh               0.00003 eV

Virial components:
Potential Energy   :         -186.34337130 Eh           -5070.66092 eV
Kinetic Energy     :           93.04512661 Eh            2531.88661 eV
Virial Ratio       :            2.00272038


DFT components:
N(Alpha)           :        7.000001718973 electrons
N(Beta)            :        7.000001718973 electrons
N(Total)           :       14.000003437945 electrons
E(X)               :       -9.035060783254 Eh       
E(C)               :       -0.441383429632 Eh       
E(XC)              :       -9.476444212886 Eh       
DFET-embed. en.    :        0.000000000000 Eh       

---------------
SCF CONVERGENCE
---------------

  Last Energy change         ...   -1.3249e-10  Tolerance :   1.0000e-08
  Last MAX-Density change    ...    2.6541e-16  Tolerance :   1.0000e-07
  Last RMS-Density change    ...    1.6853e-17  Tolerance :   5.0000e-09
  Last Orbital Gradient      ...    9.1647e-07  Tolerance :   1.0000e-05
  Last Orbital Rotation      ...    1.4763e-06  Tolerance :   1.0000e-05

             **** THE GBW FILE WAS UPDATED (CNH_105.gbw) ****
             **** DENSITY CNH_105.scfp WAS UPDATED ****
             **** ENERGY FILE WAS UPDATED (CNH_105.en.tmp) ****
             **** THE GBW FILE WAS UPDATED (CNH_105.gbw) ****
             **** DENSITY CNH_105.scfp WAS UPDATED ****
----------------
ORBITAL ENERGIES
----------------

  NO   OCC          E(Eh)            E(eV) 
   0   2.0000     -14.420823      -392.4105 
   1   2.0000     -10.290704      -280.0243 
   2   2.0000      -1.012961       -27.5641 
   3   2.0000      -0.604586       -16.4516 
   4   2.0000      -0.443190       -12.0598 
   5   2.0000      -0.407163       -11.0795 
   6   2.0000      -0.342394        -9.3170 
   7   0.0000      -0.049804        -1.3552 
   8   0.0000       0.017913         0.4874 
   9   0.0000       0.043126         1.1735 
  10   0.0000       0.174365         4.7447 
  11   0.0000       0.212105         5.7717 
  12   0.0000       0.232759         6.3337 
  13   0.0000       0.248488         6.7617 
  14   0.0000       0.320703         8.7268 
  15   0.0000       0.376917        10.2564 
  16   0.0000       0.414728        11.2853 
  17   0.0000       0.447505        12.1772 
  18   0.0000       0.547608        14.9012 
  19   0.0000       0.625579        17.0229 
  20   0.0000       0.655479        17.8365 
  21   0.0000       0.729068        19.8389 
  22   0.0000       0.836092        22.7512 
  23   0.0000       0.859552        23.3896 
  24   0.0000       1.065007        28.9803 
  25   0.0000       1.114900        30.3380 
  26   0.0000       1.253331        34.1049 
  27   0.0000       1.323105        36.0035 
  28   0.0000       1.341360        36.5003 
  29   0.0000       1.390705        37.8430 
  30   0.0000       1.412043        38.4236 
  31   0.0000       1.481226        40.3062 
  32   0.0000       1.504416        40.9372 
  33   0.0000       1.748260        47.5726 
  34   0.0000       1.830989        49.8237 
  35   0.0000       1.927226        52.4425 
  36   0.0000       2.003861        54.5278 
  37   0.0000       2.204897        59.9983 
  38   0.0000       2.232181        60.7407 
  39   0.0000       2.434247        66.2392 
  40   0.0000       2.612525        71.0904 
  41   0.0000       2.659784        72.3764 
  42   0.0000       2.752374        74.8959 
  43   0.0000       2.793389        76.0120 
  44   0.0000       2.914930        79.3193 
  45   0.0000       2.959576        80.5341 
  46   0.0000       2.989678        81.3533 
  47   0.0000       3.038890        82.6924 
  48   0.0000       3.115937        84.7890 
  49   0.0000       3.231794        87.9416 
  50   0.0000       3.383856        92.0794 
  51   0.0000       3.395649        92.4003 
  52   0.0000       3.444992        93.7430 
  53   0.0000       3.975316       108.1739 
  54   0.0000       4.139696       112.6468 
  55   0.0000       4.463653       121.4622 
  56   0.0000       4.466728       121.5458 
  57   0.0000       4.574703       124.4840 
  58   0.0000       4.733803       128.8133 
  59   0.0000       4.821986       131.2129 
  60   0.0000       4.830159       131.4353 
  61   0.0000       5.058738       137.6553 
  62   0.0000       5.349000       145.5537 
  63   0.0000       5.402814       147.0181 
  64   0.0000       5.577764       151.7787 
  65   0.0000       5.755773       156.6226 
  66   0.0000      21.942113       597.0753 
  67   0.0000      31.919926       868.5853 

                    ********************************
                    * MULLIKEN POPULATION ANALYSIS *
                    ********************************

-----------------------
MULLIKEN ATOMIC CHARGES
-----------------------
   0 N :   -0.104617
   1 C :   -0.188646
   2 H :    0.293263
Sum of atomic charges:   -0.0000000

--------------------------------
MULLIKEN REDUCED ORBITAL CHARGES
--------------------------------
  0 N s       :     3.519137  s :     3.519137
      pz      :     1.204472  p :     3.544408
      px      :     1.073150
      py      :     1.266787
      dz2     :     0.009363  d :     0.039211
      dxz     :     0.010997
      dyz     :     0.014864
      dx2y2   :     0.004678
      dxy     :    -0.000691
      f0      :     0.000064  f :     0.001861
      f+1     :     0.000213
      f-1     :     0.000821
      f+2     :     0.000065
      f-2     :     0.000146
      f+3     :     0.000442
      f-3     :     0.000109
  1 C s       :     3.895170  s :     3.895170
      pz      :     1.036938  p :     2.190065
      px      :     0.484285
      py      :     0.668842
      dz2     :     0.027615  d :     0.094438
      dxz     :     0.026421
      dyz     :     0.032029
      dx2y2   :     0.004590
      dxy     :     0.003784
      f0      :     0.002346  f :     0.008973
      f+1     :     0.001968
      f-1     :     0.003137
      f+2     :     0.000788
      f-2     :     0.000567
      f+3     :     0.000099
      f-3     :     0.000068
  2 H s       :     0.669540  s :     0.669540
      pz      :     0.009943  p :     0.037198
      px      :     0.018579
      py      :     0.008676


                     *******************************
                     * LOEWDIN POPULATION ANALYSIS *
                     *******************************

----------------------
LOEWDIN ATOMIC CHARGES
----------------------
   0 N :   -0.015417
   1 C :   -0.219852
   2 H :    0.235270

-------------------------------
LOEWDIN REDUCED ORBITAL CHARGES
-------------------------------
  0 N s       :     3.176636  s :     3.176636
      pz      :     1.487128  p :     3.727986
      px      :     1.078444
      py      :     1.162414
      dz2     :     0.051872  d :     0.098742
      dxz     :     0.017584
      dyz     :     0.019110
      dx2y2   :     0.009817
      dxy     :     0.000360
      f0      :     0.005292  f :     0.012053
      f+1     :     0.002247
      f-1     :     0.002534
      f+2     :     0.000274
      f-2     :     0.000468
      f+3     :     0.001186
      f-3     :     0.000053
  1 C s       :     3.375386  s :     3.375386
      pz      :     1.298430  p :     2.512209
      px      :     0.515901
      py      :     0.697878
      dz2     :     0.113187  d :     0.274375
      dxz     :     0.074221
      dyz     :     0.069970
      dx2y2   :     0.010031
      dxy     :     0.006966
      f0      :     0.019256  f :     0.057883
      f+1     :     0.014578
      f-1     :     0.016172
      f+2     :     0.003934
      f-2     :     0.003510
      f+3     :     0.000274
      f-3     :     0.000160
  2 H s       :     0.666400  s :     0.666400
      pz      :     0.024509  p :     0.098330
      px      :     0.053830
      py      :     0.019992


                      *****************************
                      * MAYER POPULATION ANALYSIS *
                      *****************************

  NA   - Mulliken gross atomic population
  ZA   - Total nuclear charge
  QA   - Mulliken gross atomic charge
  VA   - Mayer's total valence
  BVA  - Mayer's bonded valence
  FA   - Mayer's free valence

  ATOM       NA         ZA         QA         VA         BVA        FA
  0 N      7.1046     7.0000    -0.1046     3.0684     3.0684    -0.0000
  1 C      6.1886     6.0000    -0.1886     2.4148     2.4148    -0.0000
  2 H      0.7067     1.0000     0.2933     0.9439     0.9439    -0.0000

  Mayer bond orders larger than 0.100000
B(  0-N ,  1-C ) :   2.2696 B(  0-N ,  2-H ) :   0.7988 B(  1-C ,  2-H ) :   0.1452 


-------
TIMINGS
-------

Total SCF time: 0 days 0 hours 0 min 2 sec 

Total time                  ....       2.029 sec
Sum of individual times     ....       1.873 sec  ( 92.3%)

Fock matrix formation       ....       1.606 sec  ( 79.2%)
  Split-RI-J                ....       0.167 sec  ( 10.4% of F)
  Chain of spheres X        ....       0.693 sec  ( 43.2% of F)
  XC integration            ....       0.508 sec  ( 31.6% of F)
    Basis function eval.    ....       0.051 sec  ( 10.0% of XC)
    Density eval.           ....       0.036 sec  (  7.1% of XC)
    XC-Functional eval.     ....       0.022 sec  (  4.3% of XC)
    XC-Potential eval.      ....       0.042 sec  (  8.3% of XC)
Diagonalization             ....       0.031 sec  (  1.5%)
Density matrix formation    ....       0.003 sec  (  0.1%)
Population analysis         ....       0.013 sec  (  0.6%)
Initial guess               ....       0.019 sec  (  0.9%)
Orbital Transformation      ....       0.000 sec  (  0.0%)
Orbital Orthonormalization  ....       0.000 sec  (  0.0%)
DIIS solution               ....       0.024 sec  (  1.2%)
SOSCF solution              ....       0.021 sec  (  1.0%)
Grid generation             ....       0.156 sec  (  7.7%)

Maximum memory used throughout the entire SCF-calculation: 58.4 MB

-------------------------   --------------------
FINAL SINGLE POINT ENERGY       -93.298244694301
-------------------------   --------------------



           ************************************************************
           *        Program running with 5 parallel MPI-processes     *
           *              working on a common directory               *
           ************************************************************
------------------------------------------------------------------------------
                         ORCA SCF GRADIENT CALCULATION
------------------------------------------------------------------------------

 ... reading COSX grid (gridx3)
Gradient of the Kohn-Sham DFT energy:
Kohn-Sham wavefunction type      ... RKS
Hartree-Fock exchange scaling    ...    0.250
Number of operators              ...    1
Number of atoms                  ...    3
Basis set dimensions             ...   68
Integral neglect threshold       ... 2.5e-11
Integral primitive cutoff        ... 2.5e-12
SHARK Integral package           ... ON

Nuc. rep. gradient       (SHARK) ... done (  0.0 sec)
HCore & Overlap gradient (SHARK) ... done (  0.0 sec)
RI-J gradient            (SHARK) ... done (  0.0 sec)
COSX-gradient                    ... done (  0.1 sec)
Exchange-correlation gradient    ... done

------------------
CARTESIAN GRADIENT
------------------

   1   N   :    0.054500847   -0.002730387   -0.049935702
   2   C   :   -0.032950593    0.001633645    0.065941278
   3   H   :   -0.021570906    0.001069701   -0.015930477

Difference to translation invariance:
           :   -0.0000206516   -0.0000270417    0.0000750994

Difference to rotation invariance:
           :    0.0001438116    0.0001804007    0.0000903430

Norm of the cartesian gradient     ...    0.1078344218
RMS gradient                       ...    0.0359448073
MAX gradient                       ...    0.0659412779

-------
TIMINGS
-------

Total SCF gradient time            ...        0.347 sec

One electron gradient       ....       0.003 sec  (  0.9%)
RI-J Coulomb gradient       ....       0.043 sec  ( 12.4%)
COSX gradient               ....       0.125 sec  ( 36.0%)
XC gradient                 ....       0.056 sec  ( 16.1%)

Maximum memory used throughout the entire SCFGRAD-calculation: 33.5 MB

                            ***************************************
                            *     ORCA property calculations      *
                            ***************************************

                                    ---------------------
                                    Active property flags
                                    ---------------------
   (+) Dipole Moment
   (+) Chemical Shifts
   (+) Nuclear properties (Hyperfine,Quadrupole)


------------------------------------------------------------------------------
                       ORCA ELECTRIC PROPERTIES CALCULATION
------------------------------------------------------------------------------

Dipole Moment Calculation                       ... on
Quadrupole Moment Calculation                   ... off
Polarizability Calculation                      ... off
GBWName                                         ... CNH_105.gbw
Electron density                                ... CNH_105.scfp
The origin for moment calculation is the CENTER OF MASS  = (-1.731567,  1.807079 -0.937958)

-------------
DIPOLE MOMENT
-------------
                                X             Y             Z
Electronic contribution:      0.31689      -0.01571      -0.12763
Nuclear contribution   :     -1.08127       0.05357       0.46840
                        -----------------------------------------
Total Dipole Moment    :     -0.76438       0.03787       0.34076
                        -----------------------------------------
Magnitude (a.u.)       :      0.83775
Magnitude (Debye)      :      2.12939



--------------------
Rotational spectrum 
--------------------
 
Rotational constants in cm-1:    18.027894     1.798336     1.635218 
Rotational constants in MHz : 540462.664375 53912.754130 49022.603954 

 Dipole components along the rotational axes: 
x,y,z [a.u.] :     0.588884     0.595854     0.000005 
x,y,z [Debye]:     1.496825     1.514540     0.000012 

 


           ************************************************************
           *        Program running with 5 parallel MPI-processes     *
           *              working on a common directory               *
           ************************************************************
------------------------------------------------------------------------------
                                ORCA EPR/NMR CALCULATION
------------------------------------------------------------------------------

GBWName                      ... CNH_105.gbw
Electron density             ... CNH_105.scfp
Spin density                 ... CNH_105.scfr
Treatment of gauge           ... GIAO (approximations 1/2el = 0,0)
Details of the CP(SCF) procedure:
       Solver   = POPLE   
       MaxIter  =    64   
       Tolerance=    1.000e-04
       COSX Grid=     1   
       Op-0     =   0-  6 =>   7- 67
Multiplicity                 ... 1
g-tensor                     ... 0
NMR chemical shifts          ... 1
NMR spin-spin couplings      ... 0
NMR spectrum                 ... 0
Number of nuclei for epr/nmr ... 3
   Nucleus:   0N 
       Hyperfine : Isotope=   14 I=   1.000 P=  38.568
       Quadrupole: Isotope=   14 I=   1.000 Q=   0.020
       Spin-Orbit: Zeff=   4.550
       Nuclear Spin-Spin: Gn=   0.000
       EPRNMR Input: 
       rho(0)=N f(grad)=N a(iso)=N a(dip)=N a(orb)=N sigma(nmr)=Y spin-spin(nmr)=all-N,DSO-N,PSO-N,FC-N,SD-N
   Nucleus:   1C 
       Hyperfine : Isotope=   13 I=   0.500 P= 134.190
       Quadrupole: Isotope=   13 I=   0.500 Q=   0.000
       Spin-Orbit: Zeff=   3.600
       Nuclear Spin-Spin: Gn=   0.000
       EPRNMR Input: 
       rho(0)=N f(grad)=N a(iso)=N a(dip)=N a(orb)=N sigma(nmr)=Y spin-spin(nmr)=all-N,DSO-N,PSO-N,FC-N,SD-N
   Nucleus:   2H 
       Hyperfine : Isotope=    1 I=   0.500 P= 533.551
       Quadrupole: Isotope=    2 I=   1.000 Q=   0.003
       Spin-Orbit: Zeff=   1.000
       Nuclear Spin-Spin: Gn=   0.000
       EPRNMR Input: 
       rho(0)=N f(grad)=N a(iso)=N a(dip)=N a(orb)=N sigma(nmr)=Y spin-spin(nmr)=all-N,DSO-N,PSO-N,FC-N,SD-N
Forming RHS of the CP-SCF equations         ... 
Calculating right hand sides for GIAO treatment        ... 
  Entering RightHandSide GIAO. ScalHFX=    0.2500 NeedHFX=1
     -> 1-electron GIAO integrals will be done analytically
     -> RIJCOSX used in SCF. Same chosen for GIAO calculation.
     Making grid for GIAO integrations   ...

GRID GIAO
---------

General Integration Accuracy     IntAcc      ... 4.388
Radial Grid Type                 RadialGrid  ... OptM3 with GC (2021)
Angular Grid (max. ang.)         AngularGrid ... 4 (Lebedev-302)
Angular grid pruning method      GridPruning ... 4 (adaptive)
Weight generation scheme         WeightScheme... Becke
Basis function cutoff            BFCut       ... 1.0000e-11
Integration weight cutoff        WCut        ... 1.0000e-14
Angular grids for H and He will be reduced by one unit
Partially contracted basis set               ... off
Rotationally invariant grid construction     ... off

Total number of grid points                  ...    15549
Total number of batches                      ...      244
Average number of points per batch           ...       63
Average number of grid points per atom       ...     5183

  One-electron GIAO integrals (SHARK)     ... done
  Calculating G(B)[P]                     ... (RI-J: SHARK-ok) (COSX-ok) (add-J+K:ok) => dG/dB done
  DFT XC-terms                            ... done
  Extracting occupied and virtual blocks  ... 
  Operator  0  NO=   7 NV=  61 
  Transforming and RHS contribution       ... done
  Adding eps_i * S(B)_ai terms            ... done
  Projecting overlap derivatives          ... done
  Building G[dS/dB_ij] (COSX)             ... done
  Transforming to MO basis                ... done
  Summing G[dS/dB_ij] into RHS contribs.  ... done

  GIAO profiling information: 
    Total GIAO time               ...       0.4 sec
       GIAO 1-electron integrals  ...       0.0 sec (  0.7%)
       GIAO G(dS/dB) terms        ...       0.1 sec ( 31.3%)
       GIAO RI-J                  ...       0.0 sec (  4.2%)
       GIAO COSX                  ...       0.1 sec ( 19.8%)
       GIAO XC-terms              ...       0.1 sec ( 28.0%)

  GIAO right hand side done


------------------------------------------------------------------------------
                           ORCA CP-SCF CALCULATION
------------------------------------------------------------------------------

Input orbitals are from        ... CNH_105.gbw
Input Perturbation             ... CNH_105.pin.tmp
Wavefunction output            ... CNH_105.pout.tmp
Perturbation mode              ... Imaginary perturbation
Solver                         ... POPLE
Max. number of iterations      ... 64
Convergence tolerance          ... 1.000e-04
Integral handling              ... Direct
DFT GridXC                     ... 1
COSX GridX                     ... 1
COSX IntAccX                   ... 3.067
COSX Algorithm                 ... Auto
Number of perturbations        ... 3
Number of operators            ... 1
Orbital ranges used for CP-SCF:
 Operator 0:  Orbitals   0...  6  to   7... 67
Variables per perturbation     ... 427
DFT calculation                         ... on
XC functional terms                     ... off
Hybrid DFT                              ... on
   Exchange mixing (SCF)                ...  0.250
   Exchange mixing (CP-SCF)             ...  0.250
   GGA exch. scaling(SCF)               ...  0.750
   GGA exch. scaling (CP-SCF)           ...  0.750
   GGA corr. scaling (SCF)              ...  1.000
   GGA corr. scaling (CP-SCF)           ...  1.000

CP-SCF GRID
-----------

General Integration Accuracy     IntAcc      ... 3.467
Radial Grid Type                 RadialGrid  ... OptM3 with GC (2021)
Angular Grid (max. ang.)         AngularGrid ... 1 (Lebedev-50)
Angular grid pruning method      GridPruning ... 4 (adaptive)
Weight generation scheme         WeightScheme... Becke
Basis function cutoff            BFCut       ... 1.0000e-11
Integration weight cutoff        WCut        ... 1.0000e-14
Angular grids for H and He will be reduced by one unit
Partially contracted basis set               ... off
Rotationally invariant grid construction     ... off

Total number of grid points                  ...     2358
Total number of batches                      ...       38
Average number of points per batch           ...       62
Average number of grid points per atom       ...      786

CP-SCF GRIDX
------------

General Integration Accuracy     IntAcc      ... 3.067
Radial Grid Type                 RadialGrid  ... OptM3 with GC (2021)
Angular Grid (max. ang.)         AngularGrid ... 1 (Lebedev-50)
Angular grid pruning method      GridPruning ... 4 (adaptive)
Weight generation scheme         WeightScheme... Becke
Basis function cutoff            BFCut       ... 1.0000e-11
Integration weight cutoff        WCut        ... 1.0000e-14
Angular grids for H and He will be reduced by one unit
Partially contracted basis set               ... on
Rotationally invariant grid construction     ... off

Total number of grid points                  ...     1050
Total number of batches                      ...       18
Average number of points per batch           ...       58
Average number of grid points per atom       ...      350

Memory available               ... 1015.8 MB
Memory needed per perturbation ...   0.2 MB
Perturbations treated per batch... 3
Number of batches              ... 1
     CP-SCF ITERATION   0:   4.5036e-01 (   0.0 sec   0/  3 done)
     CP-SCF ITERATION   1:   1.7348e-02 (   0.0 sec   0/  3 done)
     CP-SCF ITERATION   2:   8.9045e-04 (   0.0 sec   0/  3 done)
     CP-SCF ITERATION   3:   1.1685e-04 (   0.0 sec   2/  3 done)
     CP-SCF ITERATION   4:   1.0077e-05 (   0.0 sec   3/  3 done)
                    *** THE CP-SCF HAS CONVERGED ***

Forming final perturbed densities           ... done
Transforming perturbed density to AO basis  ... done

Magnetic field perturbation calculated in  0.683 sec

---------------
CHEMICAL SHIFTS
---------------

Note: using conversion factor for au to ppm alpha^2/2 =   26.625677252 
GIAO: Analytic para- and diamagnetic shielding integrals (SHARK)       ...done
 --------------
 Nucleus   0N :
 --------------

Diamagnetic contribution to the shielding tensor (ppm) : 
           319.018         -8.472        -6.920
            -1.044        298.121         0.336
           -10.569         -6.578       332.343

Paramagnetic contribution to the shielding tensor (ppm): 
          -460.534         15.598       -64.283
             8.181       -295.932         3.194
          -194.584         16.729       -32.435

Total shielding tensor (ppm): 
          -141.516          7.127       -71.203
             7.137          2.189         3.530
          -205.153         10.151       299.907


 Diagonalized sT*s matrix:
 
 sDSO           297.702          315.759          336.020  iso=     316.494
 sPSO          -295.160         -435.465          -58.275  iso=    -262.967
        ---------------  ---------------  ---------------
 Total            2.542         -119.707          277.745  iso=      53.527

 --------------
 Nucleus   1C :
 --------------

Diamagnetic contribution to the shielding tensor (ppm) : 
           258.561         -2.194        -4.692
            -0.225        254.251         0.225
            -2.704          0.565       271.949

Paramagnetic contribution to the shielding tensor (ppm): 
          -362.070         -7.423      -177.660
            -9.382       -551.573         8.810
          -109.972          5.010      -104.509

Total shielding tensor (ppm): 
          -103.509         -9.617      -182.353
            -9.607       -297.322         9.034
          -112.676          5.575       167.440


 Diagonalized sT*s matrix:
 
 sDSO           258.654          271.964          254.142  iso=     261.587
 sPSO          -362.292         -103.921         -551.939  iso=    -339.384
        ---------------  ---------------  ---------------
 Total         -103.638          168.044         -297.798  iso=     -77.797

 --------------
 Nucleus   2H :
 --------------

Diamagnetic contribution to the shielding tensor (ppm) : 
            38.839         -5.340        -4.965
            -1.236         14.116         0.248
            -3.202         -1.022        21.121

Paramagnetic contribution to the shielding tensor (ppm): 
           -14.554          5.385         0.894
             1.279         11.033        -0.047
            -5.079          1.433         1.908

Total shielding tensor (ppm): 
            24.285          0.045        -4.071
             0.043         25.150         0.201
            -8.281          0.411        23.028


 Diagonalized sT*s matrix:
 
 sDSO            24.429           13.852           35.795  iso=      24.692
 sPSO            -6.964           11.300           -5.949  iso=      -0.538
        ---------------  ---------------  ---------------
 Total           17.465           25.152           29.846  iso=      24.154



--------------------------------
CHEMICAL SHIELDING SUMMARY (ppm)
--------------------------------


  Nucleus  Element    Isotropic     Anisotropy
  -------  -------  ------------   ------------
      0       N           53.527        336.327 
      1       C          -77.797       -330.000 
      2       H           24.154          8.538 



Maximum memory used throughout the entire EPRNMR-calculation: 10.2 MB

----------------------------------------------------------------------------
                           ORCA NUMERICAL FREQUENCIES
                              (5-process run)
----------------------------------------------------------------------------

Number of atoms                ... 3
Central differences            ... used
Number of displacements        ... 18
Numerical increment            ... 5.000e-03 bohr
IR-spectrum generation         ... on
Raman-spectrum generation      ... off
Surface Crossing Hessian       ... off

The output will be reduced. Please look at the following files:
SCF program output             ... >CNH_105.lastscf
Integral program output        ... >CNH_105.lastint
Gradient program output        ... >CNH_105.lastgrad
Dipole moment program output   ... >CNH_105.lastmom
AutoCI program output          ... >CNH_105.lastautoci

	<< Calculating on displaced geometry   5 (of  18) >>
	<< Calculating on displaced geometry   3 (of  18) >>
	<< Calculating on displaced geometry   4 (of  18) >>
	<< Calculating on displaced geometry   1 (of  18) >>
	<< Calculating on displaced geometry   2 (of  18) >>
	<< Calculating on displaced geometry   6 (of  18) >>
	<< Calculating on displaced geometry   7 (of  18) >>
	<< Calculating on displaced geometry   8 (of  18) >>
	<< Calculating on displaced geometry   9 (of  18) >>
	<< Calculating on displaced geometry  10 (of  18) >>
	<< Calculating on displaced geometry  13 (of  18) >>
	<< Calculating on displaced geometry  11 (of  18) >>
	<< Calculating on displaced geometry  12 (of  18) >>
	<< Calculating on displaced geometry  15 (of  18) >>
	<< Calculating on displaced geometry  14 (of  18) >>
	<< Calculating on displaced geometry  16 (of  18) >>
	<< Calculating on displaced geometry  17 (of  18) >>
	<< Calculating on displaced geometry  18 (of  18) >>

-----------------------
VIBRATIONAL FREQUENCIES
-----------------------

Scaling factor for frequencies =  1.000000000 (already applied!)

   0:         0.00 cm**-1
   1:         0.00 cm**-1
   2:         0.00 cm**-1
   3:         0.00 cm**-1
   4:         0.00 cm**-1
   5:         0.00 cm**-1
   6:       448.00 cm**-1
   7:      2238.61 cm**-1
   8:      3167.74 cm**-1


------------
NORMAL MODES
------------

These modes are the cartesian displacements weighted by the diagonal matrix
M(i,i)=1/sqrt(m[i]) where m[i] is the mass of the displaced atom
Thus, these vectors are normalized but *not* orthogonal

                  0          1          2          3          4          5    
      0       0.000000   0.000000   0.000000   0.000000   0.000000   0.000000
      1       0.000000   0.000000   0.000000   0.000000   0.000000   0.000000
      2       0.000000   0.000000   0.000000   0.000000   0.000000   0.000000
      3       0.000000   0.000000   0.000000   0.000000   0.000000   0.000000
      4       0.000000   0.000000   0.000000   0.000000   0.000000   0.000000
      5       0.000000   0.000000   0.000000   0.000000   0.000000   0.000000
      6       0.000000   0.000000   0.000000   0.000000   0.000000   0.000000
      7       0.000000   0.000000   0.000000   0.000000   0.000000   0.000000
      8       0.000000   0.000000   0.000000   0.000000   0.000000   0.000000
                  6          7          8    
      0      -0.072029   0.138186   0.068460
      1       0.003572  -0.006831  -0.003392
      2      -0.067977  -0.554439  -0.021067
      3       0.079719  -0.194648   0.003352
      4      -0.003951   0.009626  -0.000167
      5      -0.003856   0.662646   0.016348
      6       0.050990   0.399146  -0.991248
      7      -0.002557  -0.019775   0.049122
      8       0.990548  -0.191485   0.097944


-----------
IR SPECTRUM
-----------

 Mode   freq       eps      Int      T**2         TX        TY        TZ
       cm**-1   L/(mol*cm) km/mol    a.u.
----------------------------------------------------------------------------
  6:    448.00   0.034230  172.98  0.023843  (-0.058464  0.002902  0.142888)
  7:   2238.61   0.016891   85.36  0.002355  (-0.011746  0.000585  0.047078)
  8:   3167.74   0.036144  182.66  0.003561  (-0.056939  0.002773  0.017632)

* The epsilon (eps) is given for a Dirac delta lineshape.
** The dipole moment derivative (T) already includes vibrational overlap.

The first frequency considered to be a vibration is 6
The total number of vibrations considered is 3


--------------------------
THERMOCHEMISTRY AT 298.15K
--------------------------

Temperature         ... 298.15 K
Pressure            ... 1.00 atm
Total Mass          ... 27.03 AMU

Throughout the following assumptions are being made:
  (1) The electronic state is orbitally nondegenerate
  (2) There are no thermally accessible electronically excited states
  (3) Hindered rotations indicated by low frequency modes are not
      treated as such but are treated as vibrations and this may
      cause some error
  (4) All equations used are the standard statistical mechanics
      equations for an ideal gas
  (5) All vibrations are strictly harmonic

freq.     448.00  E(vib)   ...       0.17 
freq.    2238.61  E(vib)   ...       0.00 
freq.    3167.74  E(vib)   ...       0.00 

------------
INNER ENERGY
------------

The inner energy is: U= E(el) + E(ZPE) + E(vib) + E(rot) + E(trans)
    E(el)   - is the total energy from the electronic structure calculation
              = E(kin-el) + E(nuc-el) + E(el-el) + E(nuc-nuc)
    E(ZPE)  - the the zero temperature vibrational energy from the frequency calculation
    E(vib)  - the the finite temperature correction to E(ZPE) due to population
              of excited vibrational states
    E(rot)  - is the rotational thermal energy
    E(trans)- is the translational thermal energy

Summary of contributions to the inner energy U:
Electronic energy                ...    -93.29824469 Eh
Zero point energy                ...      0.01333720 Eh       8.37 kcal/mol
Thermal vibrational correction   ...      0.00026575 Eh       0.17 kcal/mol
Thermal rotational correction    ...      0.00141627 Eh       0.89 kcal/mol
Thermal translational correction ...      0.00141627 Eh       0.89 kcal/mol
-----------------------------------------------------------------------
Total thermal energy                    -93.28180920 Eh


Summary of corrections to the electronic energy:
(perhaps to be used in another calculation)
Total thermal correction                  0.00309829 Eh       1.94 kcal/mol
Non-thermal (ZPE) correction              0.01333720 Eh       8.37 kcal/mol
-----------------------------------------------------------------------
Total correction                          0.01643549 Eh      10.31 kcal/mol


--------
ENTHALPY
--------

The enthalpy is H = U + kB*T
                kB is Boltzmann's constant
Total free energy                 ...    -93.28180920 Eh 
Thermal Enthalpy correction       ...      0.00094421 Eh       0.59 kcal/mol
-----------------------------------------------------------------------
Total Enthalpy                    ...    -93.28086499 Eh


Note: Rotational entropy computed according to Herzberg 
Infrared and Raman Spectra, Chapter V,1, Van Nostrand Reinhold, 1945 
Point Group:  Cs, Symmetry Number:   1  
Rotational constants in cm-1:    18.027894     1.798336     1.635218 

Vibrational entropy computed according to the QRRHO of S. Grimme
Chem.Eur.J. 2012 18 9955


-------
ENTROPY
-------

The entropy contributions are T*S = T*(S(el)+S(vib)+S(rot)+S(trans))
     S(el)   - electronic entropy
     S(vib)  - vibrational entropy
     S(rot)  - rotational entropy
     S(trans)- translational entropy
The entropies will be listed as multiplied by the temperature to get
units of energy

Electronic entropy                ...      0.00000000 Eh      0.00 kcal/mol
Vibrational entropy               ...      0.00038189 Eh      0.24 kcal/mol
Rotational entropy                ...      0.00763635 Eh      4.79 kcal/mol
Translational entropy             ...      0.01701823 Eh     10.68 kcal/mol
-----------------------------------------------------------------------
Final entropy term                ...      0.02503647 Eh     15.71 kcal/mol

In case the symmetry of your molecule has not been determined correctly
or in case you have a reason to use a different symmetry number we print 
out the resulting rotational entropy values for sn=1,12 :
 --------------------------------------------------------
|  sn= 1 | S(rot)=       0.00763635 Eh      4.79 kcal/mol|
|  sn= 2 | S(rot)=       0.00698189 Eh      4.38 kcal/mol|
|  sn= 3 | S(rot)=       0.00659906 Eh      4.14 kcal/mol|
|  sn= 4 | S(rot)=       0.00632743 Eh      3.97 kcal/mol|
|  sn= 5 | S(rot)=       0.00611675 Eh      3.84 kcal/mol|
|  sn= 6 | S(rot)=       0.00594460 Eh      3.73 kcal/mol|
|  sn= 7 | S(rot)=       0.00579906 Eh      3.64 kcal/mol|
|  sn= 8 | S(rot)=       0.00567298 Eh      3.56 kcal/mol|
|  sn= 9 | S(rot)=       0.00556177 Eh      3.49 kcal/mol|
|  sn=10 | S(rot)=       0.00546229 Eh      3.43 kcal/mol|
|  sn=11 | S(rot)=       0.00537230 Eh      3.37 kcal/mol|
|  sn=12 | S(rot)=       0.00529015 Eh      3.32 kcal/mol|
 --------------------------------------------------------


-------------------
GIBBS FREE ENERGY
-------------------

The Gibbs free energy is G = H - T*S

Total enthalpy                    ...    -93.28086499 Eh 
Total entropy correction          ...     -0.02503647 Eh    -15.71 kcal/mol
-----------------------------------------------------------------------
Final Gibbs free energy         ...    -93.30590147 Eh

For completeness - the Gibbs free energy minus the electronic energy
G-E(el)                           ...     -0.00765677 Eh     -4.80 kcal/mol



Timings for individual modules:

Sum of individual times         ...       71.564 sec (=   1.193 min)
GTO integral calculation        ...        4.721 sec (=   0.079 min)   6.6 %
SCF iterations                  ...        7.380 sec (=   0.123 min)  10.3 %
EPR/NMR calculation             ...        2.252 sec (=   0.038 min)   3.1 %
SCF Gradient evaluation         ...        3.842 sec (=   0.064 min)   5.4 %
Numerical frequency calculation ...       53.369 sec (=   0.889 min)  74.6 %
                             ****ORCA TERMINATED NORMALLY****
TOTAL RUN TIME: 0 days 0 hours 1 minutes 4 seconds 986 msec
