
                                 *****************
                                 * O   R   C   A *
                                 *****************

                                            #,                                       
                                            ###                                      
                                            ####                                     
                                            #####                                    
                                            ######                                   
                                           ########,                                 
                                     ,,################,,,,,                         
                               ,,#################################,,                 
                          ,,##########################################,,             
                       ,#########################################, ''#####,          
                    ,#############################################,,   '####,        
                  ,##################################################,,,,####,       
                ,###########''''           ''''###############################       
              ,#####''   ,,,,##########,,,,          '''####'''          '####       
            ,##' ,,,,###########################,,,                        '##       
           ' ,,###''''                  '''############,,,                           
         ,,##''                                '''############,,,,        ,,,,,,###''
      ,#''                                            '''#######################'''  
     '                                                          ''''####''''         
             ,#######,   #######,   ,#######,      ##                                
            ,#'     '#,  ##    ##  ,#'     '#,    #''#        ######   ,####,        
            ##       ##  ##   ,#'  ##            #'  '#       #        #'  '#        
            ##       ##  #######   ##           ,######,      #####,   #    #        
            '#,     ,#'  ##    ##  '#,     ,#' ,#      #,         ##   #,  ,#        
             '#######'   ##     ##  '#######'  #'      '#     #####' # '####'        



                  #######################################################
                  #                        -***-                        #
                  #          Department of theory and spectroscopy      #
                  #    Directorship and core code : Frank Neese         #
                  #        Max Planck Institute fuer Kohlenforschung    #
                  #                Kaiser Wilhelm Platz 1               #
                  #                 D-45470 Muelheim/Ruhr               #
                  #                      Germany                        #
                  #                                                     #
                  #                  All rights reserved                #
                  #                        -***-                        #
                  #######################################################


                         Program Version 5.0.3 -  RELEASE  -


 With contributions from (in alphabetic order):
   Daniel Aravena         : Magnetic Suceptibility
   Michael Atanasov       : Ab Initio Ligand Field Theory (pilot matlab implementation)
   Alexander A. Auer      : GIAO ZORA, VPT2 properties, NMR spectrum
   Ute Becker             : Parallelization
   Giovanni Bistoni       : ED, misc. LED, open-shell LED, HFLD
   Martin Brehm           : Molecular dynamics
   Dmytro Bykov           : SCF Hessian
   Vijay G. Chilkuri      : MRCI spin determinant printing, contributions to CSF-ICE
   Dipayan Datta          : RHF DLPNO-CCSD density
   Achintya Kumar Dutta   : EOM-CC, STEOM-CC
   Dmitry Ganyushin       : Spin-Orbit,Spin-Spin,Magnetic field MRCI
   Miquel Garcia          : C-PCM and meta-GGA Hessian, CC/C-PCM, Gaussian charge scheme
   Yang Guo               : DLPNO-NEVPT2, F12-NEVPT2, CIM, IAO-localization
   Andreas Hansen         : Spin unrestricted coupled pair/coupled cluster methods
   Benjamin Helmich-Paris : MC-RPA, TRAH-SCF, COSX integrals
   Lee Huntington         : MR-EOM, pCC
   Robert Izsak           : Overlap fitted RIJCOSX, COSX-SCS-MP3, EOM
   Marcus Kettner         : VPT2
   Christian Kollmar      : KDIIS, OOCD, Brueckner-CCSD(T), CCSD density, CASPT2, CASPT2-K
   Simone Kossmann        : Meta GGA functionals, TD-DFT gradient, OOMP2, MP2 Hessian
   Martin Krupicka        : Initial AUTO-CI
   Lucas Lang             : DCDCAS
   Marvin Lechner         : AUTO-CI (C++ implementation), FIC-MRCC
   Dagmar Lenk            : GEPOL surface, SMD
   Dimitrios Liakos       : Extrapolation schemes; Compound Job, initial MDCI parallelization
   Dimitrios Manganas     : Further ROCIS development; embedding schemes
   Dimitrios Pantazis     : SARC Basis sets
   Anastasios Papadopoulos: AUTO-CI, single reference methods and gradients
   Taras Petrenko         : DFT Hessian,TD-DFT gradient, ASA, ECA, R-Raman, ABS, FL, XAS/XES, NRVS
   Peter Pinski           : DLPNO-MP2, DLPNO-MP2 Gradient
   Christoph Reimann      : Effective Core Potentials
   Marius Retegan         : Local ZFS, SOC
   Christoph Riplinger    : Optimizer, TS searches, QM/MM, DLPNO-CCSD(T), (RO)-DLPNO pert. Triples
   Tobias Risthaus        : Range-separated hybrids, TD-DFT gradient, RPA, STAB
   Michael Roemelt        : Original ROCIS implementation
   Masaaki Saitow         : Open-shell DLPNO-CCSD energy and density
   Barbara Sandhoefer     : DKH picture change effects
   Avijit Sen             : IP-ROCIS
   Kantharuban Sivalingam : CASSCF convergence, NEVPT2, FIC-MRCI
   Bernardo de Souza      : ESD, SOC TD-DFT
   Georgi Stoychev        : AutoAux, RI-MP2 NMR, DLPNO-MP2 response
   Willem Van den Heuvel  : Paramagnetic NMR
   Boris Wezisla          : Elementary symmetry handling
   Frank Wennmohs         : Technical directorship


 We gratefully acknowledge several colleagues who have allowed us to
 interface, adapt or use parts of their codes:
   Stefan Grimme, W. Hujo, H. Kruse, P. Pracht,  : VdW corrections, initial TS optimization,
                  C. Bannwarth, S. Ehlert          DFT functionals, gCP, sTDA/sTD-DF
   Ed Valeev, F. Pavosevic, A. Kumar             : LibInt (2-el integral package), F12 methods
   Garnet Chan, S. Sharma, J. Yang, R. Olivares  : DMRG
   Ulf Ekstrom                                   : XCFun DFT Library
   Mihaly Kallay                                 : mrcc  (arbitrary order and MRCC methods)
   Jiri Pittner, Ondrej Demel                    : Mk-CCSD
   Frank Weinhold                                : gennbo (NPA and NBO analysis)
   Christopher J. Cramer and Donald G. Truhlar   : smd solvation model
   Lars Goerigk                                  : TD-DFT with DH, B97 family of functionals
   V. Asgeirsson, H. Jonsson                     : NEB implementation
   FAccTs GmbH                                   : IRC, NEB, NEB-TS, DLPNO-Multilevel, CI-OPT
                                                   MM, QMMM, 2- and 3-layer-ONIOM, Crystal-QMMM,
                                                   LR-CPCM, SF, NACMEs, symmetry and pop. for TD-DFT,
                                                   nearIR, NL-DFT gradient (VV10), updates on ESD,
                                                   ML-optimized integration grids
   S Lehtola, MJT Oliveira, MAL Marques          : LibXC Library
   Liviu Ungur et al                             : ANISO software


 Your calculation uses the libint2 library for the computation of 2-el integrals
 For citations please refer to: http://libint.valeyev.net

 Your ORCA version has been built with support for libXC version: 5.1.0
 For citations please refer to: https://tddft.org/programs/libxc/

 This ORCA versions uses:
   CBLAS   interface :  Fast vector & matrix operations
   LAPACKE interface :  Fast linear algebra routines
   Shared memory     :  Shared parallel matrices


SCAN-COORDS
================================================================================

----- Orbital basis set information -----
Your calculation utilizes the basis: def2-TZVP
   F. Weigend and R. Ahlrichs, Phys. Chem. Chem. Phys. 7, 3297 (2005).

----- AuxJ basis set information -----
Your calculation utilizes the auxiliary basis: def2/J
   F. Weigend, Phys. Chem. Chem. Phys. 8, 1057 (2006).

================================================================================
                                        WARNINGS
                       Please study these warnings very carefully!
================================================================================

WARNING: Gradients needed for Numerical Frequencies
  ===> : Setting RunTyp to EnGrad

WARNING: The environment variable RSH_COMMAND is not set!
  ===> : All Displacements for the Numerical Hessian or Gradient calculation
         will be started on localhost

INFO   : the flag for use of the SHARK integral package has been found!

================================================================================
                                       INPUT FILE
================================================================================
NAME = HCN_135.inp
|  1> ! PAL5 PBE0 NumFreq
|  2> %method
|  3>         method DFT
|  4>         runtyp Energy
|  5> end
|  6> %basis
|  7>         basis "def2-TZVP"
|  8> end
|  9> %coords
| 10>         CTyp xyz
| 11>         Charge 0
| 12>         Mult 1
| 13>         Units Angs
| 14>         coords
| 15> 	#135
| 16> 	C     -1.011290    0.960957    0.000001
| 17> 	N     -0.195630    0.920623   -0.819801
| 18> 	H     -2.068270    1.013340    0.000003
| 19> 	end
| 20> end
| 21> %eprnmr
| 22>         NMRShielding 1
| 23>         Nuclei = all N {shift}
| 24>         Nuclei = all C {shift}
| 25>         Nuclei = all H {shift}
| 26> endd                         ****END OF INPUT****
================================================================================

                     *******************************
                     * Energy+Gradient Calculation *
                     *******************************

---------------------------------
CARTESIAN COORDINATES (ANGSTROEM)
---------------------------------
  C     -1.011290    0.960957    0.000001
  N     -0.195630    0.920623   -0.819801
  H     -2.068270    1.013340    0.000003

----------------------------
CARTESIAN COORDINATES (A.U.)
----------------------------
  NO LB      ZA    FRAG     MASS         X           Y           Z
   0 C     6.0000    0    12.011   -1.911061    1.815946    0.000002
   1 N     7.0000    0    14.007   -0.369687    1.739725   -1.549199
   2 H     1.0000    0     1.008   -3.908464    1.914935    0.000006

--------------------------------
INTERNAL COORDINATES (ANGSTROEM)
--------------------------------
 C      0   0   0     0.000000000000     0.00000000     0.00000000
 N      1   0   0     1.157153138681     0.00000000     0.00000000
 H      1   2   0     1.058277231680   134.88998255     0.00000000

---------------------------
INTERNAL COORDINATES (A.U.)
---------------------------
 C      0   0   0     0.000000000000     0.00000000     0.00000000
 N      1   0   0     2.186702527115     0.00000000     0.00000000
 H      1   2   0     1.999854141640   134.88998255     0.00000000

---------------------
BASIS SET INFORMATION
---------------------
There are 3 groups of distinct atoms

 Group   1 Type C   : 11s6p2d1f contracted to 5s3p2d1f pattern {62111/411/11/1}
 Group   2 Type N   : 11s6p2d1f contracted to 5s3p2d1f pattern {62111/411/11/1}
 Group   3 Type H   : 5s1p contracted to 3s1p pattern {311/1}

Atom   0C    basis set group =>   1
Atom   1N    basis set group =>   2
Atom   2H    basis set group =>   3
---------------------------------
AUXILIARY/J BASIS SET INFORMATION
---------------------------------
There are 3 groups of distinct atoms

 Group   1 Type C   : 12s5p4d2f1g contracted to 6s4p3d1f1g pattern {711111/2111/211/2/1}
 Group   2 Type N   : 12s5p4d2f1g contracted to 6s4p3d1f1g pattern {711111/2111/211/2/1}
 Group   3 Type H   : 5s2p1d contracted to 3s1p1d pattern {311/2/1}

Atom   0C    basis set group =>   1
Atom   1N    basis set group =>   2
Atom   2H    basis set group =>   3


           ************************************************************
           *        Program running with 5 parallel MPI-processes     *
           *              working on a common directory               *
           ************************************************************
------------------------------------------------------------------------------
                           ORCA GTO INTEGRAL CALCULATION
                           -- RI-GTO INTEGRALS CHOSEN --
------------------------------------------------------------------------------
------------------------------------------------------------------------------
                   ___                                                        
                  /   \      - P O W E R E D   B Y -                         
                 /     \                                                     
                 |  |  |   _    _      __       _____    __    __             
                 |  |  |  | |  | |    /  \     |  _  \  |  |  /  |          
                  \  \/   | |  | |   /    \    | | | |  |  | /  /          
                 / \  \   | |__| |  /  /\  \   | |_| |  |  |/  /          
                |  |  |   |  __  | /  /__\  \  |    /   |      \           
                |  |  |   | |  | | |   __   |  |    \   |  |\   \          
                \     /   | |  | | |  |  |  |  | |\  \  |  | \   \       
                 \___/    |_|  |_| |__|  |__|  |_| \__\ |__|  \__/        
                                                                              
                      - O R C A' S   B I G   F R I E N D -                    
                                      &                                       
                       - I N T E G R A L  F E E D E R -                       
                                                                              
 v1 FN, 2020, v2 2021                                                         
------------------------------------------------------------------------------


Reading SHARK input file HCN_135.SHARKINP.tmp ... ok
----------------------
SHARK INTEGRAL PACKAGE
----------------------

Number of atoms                             ...      3
Number of basis functions                   ...     68
Number of shells                            ...     26
Maximum angular momentum                    ...      3
Integral batch strategy                     ... SHARK/LIBINT Hybrid
RI-J (if used) integral strategy            ... SPLIT-RIJ (Revised 2003 algorithm where possible)
Printlevel                                  ...      1
Contraction scheme used                     ... SEGMENTED contraction
Coulomb Range Separation                    ... NOT USED
Exchange Range Separation                   ... NOT USED
Finite Nucleus Model                        ... NOT USED
Auxiliary Coulomb fitting basis             ... AVAILABLE
   # of basis functions in Aux-J            ...    109
   # of shells in Aux-J                     ...     35
   Maximum angular momentum in Aux-J        ...      4
Auxiliary J/K fitting basis                 ... NOT available
Auxiliary Correlation fitting basis         ... NOT available
Auxiliary 'external' fitting basis          ... NOT available
Integral threshold                          ...     2.500000e-11
Primitive cut-off                           ...     2.500000e-12
Primitive pair pre-selection threshold      ...     2.500000e-12

Calculating pre-screening integrals         ... done (  0.0 sec) Dimension = 26
Organizing shell pair data                  ... done (  0.0 sec)
Shell pair information
Total number of shell pairs                 ...       351
Shell pairs after pre-screening             ...       350
Total number of primitive shell pairs       ...      1128
Primitive shell pairs kept                  ...      1030
          la=0 lb=0:     90 shell pairs
          la=1 lb=0:     91 shell pairs
          la=1 lb=1:     28 shell pairs
          la=2 lb=0:     52 shell pairs
          la=2 lb=1:     28 shell pairs
          la=2 lb=2:     10 shell pairs
          la=3 lb=0:     26 shell pairs
          la=3 lb=1:     14 shell pairs
          la=3 lb=2:      8 shell pairs
          la=3 lb=3:      3 shell pairs

Calculating one electron integrals          ... done (  0.0 sec)
Calculating RI/J V-Matrix + Cholesky decomp.... done (  0.0 sec)
Calculating Nuclear repulsion               ... done (  0.0 sec) ENN=     24.017410478267 Eh

SHARK setup successfully completed in   0.1 seconds

Maximum memory used throughout the entire GTOINT-calculation: 14.0 MB


           ************************************************************
           *        Program running with 5 parallel MPI-processes     *
           *              working on a common directory               *
           ************************************************************
-------------------------------------------------------------------------------
                                 ORCA SCF
-------------------------------------------------------------------------------

------------
SCF SETTINGS
------------
Hamiltonian:
 Density Functional     Method          .... DFT(GTOs)
 Exchange Functional    Exchange        .... PBE
   PBE kappa parameter   XKappa         ....  0.804000
   PBE mue parameter    XMuePBE         ....  0.219520
 Correlation Functional Correlation     .... PBE
   PBE beta parameter  CBetaPBE         ....  0.066725
 LDA part of GGA corr.  LDAOpt          .... PW91-LDA
 Gradients option       PostSCFGGA      .... off
 Hybrid DFT is turned on
   Fraction HF Exchange ScalHFX         ....  0.250000
   Scaling of DF-GGA-X  ScalDFX         ....  0.750000
   Scaling of DF-GGA-C  ScalDFC         ....  1.000000
   Scaling of DF-LDA-C  ScalLDAC        ....  1.000000
   Perturbative correction              ....  0.000000
   Density functional embedding theory  .... OFF
   NL short-range parameter             ....  6.900000
 RI-approximation to the Coulomb term is turned on
   Number of AuxJ basis functions       .... 109
   RIJ-COSX (HFX calculated with COS-X)).... on


General Settings:
 Integral files         IntName         .... HCN_135
 Hartree-Fock type      HFTyp           .... RHF
 Total Charge           Charge          ....    0
 Multiplicity           Mult            ....    1
 Number of Electrons    NEL             ....   14
 Basis Dimension        Dim             ....   68
 Nuclear Repulsion      ENuc            ....     24.0174104783 Eh

Convergence Acceleration:
 DIIS                   CNVDIIS         .... on
   Start iteration      DIISMaxIt       ....    12
   Startup error        DIISStart       ....  0.200000
   # of expansion vecs  DIISMaxEq       ....     5
   Bias factor          DIISBfac        ....   1.050
   Max. coefficient     DIISMaxC        ....  10.000
 Trust-Rad. Augm. Hess. CNVTRAH         .... auto
   Auto Start mean grad. ratio tolernc. ....  1.125000
   Auto Start start iteration           ....    20
   Auto Start num. interpolation iter.  ....    10
   Max. Number of Micro iterations      ....    16
   Max. Number of Macro iterations      .... Maxiter - #DIIS iter
   Number of Davidson start vectors     ....     2
   Converg. threshold I  (grad. norm)   ....   1.000e-05
   Converg. threshold II (energy diff.) ....   1.000e-08
   Grad. Scal. Fac. for Micro threshold ....   0.100
   Minimum threshold for Micro iter.    ....   0.010
   NR start threshold (gradient norm)   ....   0.001
   Initial trust radius                 ....   0.400
   Minimum AH scaling param. (alpha)    ....   1.000
   Maximum AH scaling param. (alpha)    .... 1000.000
   Orbital update algorithm             .... Taylor
   White noise on init. David. guess    .... on
   Maximum white noise                  ....   0.010
   Quad. conv. algorithm                .... NR
 SOSCF                  CNVSOSCF        .... on
   Start iteration      SOSCFMaxIt      ....   150
   Startup grad/error   SOSCFStart      ....  0.003300
 Level Shifting         CNVShift        .... on
   Level shift para.    LevelShift      ....    0.2500
   Turn off err/grad.   ShiftErr        ....    0.0010
 Zerner damping         CNVZerner       .... off
 Static damping         CNVDamp         .... on
   Fraction old density DampFac         ....    0.7000
   Max. Damping (<1)    DampMax         ....    0.9800
   Min. Damping (>=0)   DampMin         ....    0.0000
   Turn off err/grad.   DampErr         ....    0.1000
 Fernandez-Rico         CNVRico         .... off

SCF Procedure:
 Maximum # iterations   MaxIter         ....   125
 SCF integral mode      SCFMode         .... Direct
   Integral package                     .... SHARK and LIBINT hybrid scheme
 Reset frequency        DirectResetFreq ....    20
 Integral Threshold     Thresh          ....  2.500e-11 Eh
 Primitive CutOff       TCut            ....  2.500e-12 Eh

Convergence Tolerance:
 Convergence Check Mode ConvCheckMode   .... Total+1el-Energy
 Convergence forced     ConvForced      .... 0
 Energy Change          TolE            ....  1.000e-08 Eh
 1-El. energy change                    ....  1.000e-05 Eh
 Orbital Gradient       TolG            ....  1.000e-05
 Orbital Rotation angle TolX            ....  1.000e-05
 DIIS Error             TolErr          ....  5.000e-07


Diagonalization of the overlap matrix:
Smallest eigenvalue                        ... 6.648e-04
Time for diagonalization                   ...    0.001 sec
Threshold for overlap eigenvalues          ... 1.000e-08
Number of eigenvalues below threshold      ... 0
Time for construction of square roots      ...    0.004 sec
Total time needed                          ...    0.005 sec

Time for model grid setup =    0.014 sec

------------------------------
INITIAL GUESS: MODEL POTENTIAL
------------------------------
Loading Hartree-Fock densities                     ... done
Calculating cut-offs                               ... done
Initializing the effective Hamiltonian             ... done
Setting up the integral package (SHARK)            ... done
Starting the Coulomb interaction                   ... done (   0.0 sec)
Reading the grid                                   ... done
Mapping shells                                     ... done
Starting the XC term evaluation                    ... done (   0.0 sec)
  promolecular density results
     # of electrons  =     13.999557487
     EX              =    -11.844475587
     EC              =     -0.433167168
     EX+EC           =    -12.277642755
Transforming the Hamiltonian                       ... done (   0.0 sec)
Diagonalizing the Hamiltonian                      ... done (   0.0 sec)
Back transforming the eigenvectors                 ... done (   0.0 sec)
Now organizing SCF variables                       ... done
                      ------------------
                      INITIAL GUESS DONE (   0.0 sec)
                      ------------------
-------------------
DFT GRID GENERATION
-------------------

General Integration Accuracy     IntAcc      ... 4.388
Radial Grid Type                 RadialGrid  ... OptM3 with GC (2021)
Angular Grid (max. ang.)         AngularGrid ... 4 (Lebedev-302)
Angular grid pruning method      GridPruning ... 4 (adaptive)
Weight generation scheme         WeightScheme... Becke
Basis function cutoff            BFCut       ... 1.0000e-11
Integration weight cutoff        WCut        ... 1.0000e-14
Angular grids for H and He will be reduced by one unit
Partially contracted basis set               ... off
Rotationally invariant grid construction     ... off

Total number of grid points                  ...    15548
Total number of batches                      ...      244
Average number of points per batch           ...       63
Average number of grid points per atom       ...     5183
Time for grid setup =    0.056 sec

--------------------
COSX GRID GENERATION
--------------------

GRIDX 1
-------
General Integration Accuracy     IntAcc      ... 3.816
Radial Grid Type                 RadialGrid  ... OptM3 with GC (2021)
Angular Grid (max. ang.)         AngularGrid ... 1 (Lebedev-50)
Angular grid pruning method      GridPruning ... 4 (adaptive)
Weight generation scheme         WeightScheme... Becke
Basis function cutoff            BFCut       ... 1.0000e-11
Integration weight cutoff        WCut        ... 1.0000e-14
Angular grids for H and He will be reduced by one unit
Partially contracted basis set               ... on
Rotationally invariant grid construction     ... off

Total number of grid points                  ...     1970
Total number of batches                      ...       33
Average number of points per batch           ...       59
Average number of grid points per atom       ...      657
UseSFitting                                  ... on

GRIDX 2
-------
General Integration Accuracy     IntAcc      ... 4.020
Radial Grid Type                 RadialGrid  ... OptM3 with GC (2021)
Angular Grid (max. ang.)         AngularGrid ... 2 (Lebedev-110)
Angular grid pruning method      GridPruning ... 4 (adaptive)
Weight generation scheme         WeightScheme... Becke
Basis function cutoff            BFCut       ... 1.0000e-11
Integration weight cutoff        WCut        ... 1.0000e-14
Angular grids for H and He will be reduced by one unit
Partially contracted basis set               ... on
Rotationally invariant grid construction     ... off

Total number of grid points                  ...     4569
Total number of batches                      ...       73
Average number of points per batch           ...       62
Average number of grid points per atom       ...     1523
UseSFitting                                  ... on

GRIDX 3
-------
General Integration Accuracy     IntAcc      ... 4.338
Radial Grid Type                 RadialGrid  ... OptM3 with GC (2021)
Angular Grid (max. ang.)         AngularGrid ... 3 (Lebedev-194)
Angular grid pruning method      GridPruning ... 4 (adaptive)
Weight generation scheme         WeightScheme... Becke
Basis function cutoff            BFCut       ... 1.0000e-11
Integration weight cutoff        WCut        ... 1.0000e-14
Angular grids for H and He will be reduced by one unit
Partially contracted basis set               ... on
Rotationally invariant grid construction     ... off

Total number of grid points                  ...    10180
Total number of batches                      ...      160
Average number of points per batch           ...       63
Average number of grid points per atom       ...     3393
UseSFitting                                  ... on

Time for X-Grid setup             =    0.120 sec

--------------
SCF ITERATIONS
--------------
ITER       Energy         Delta-E        Max-DP      RMS-DP      [F,P]     Damp
               ***  Starting incremental Fock matrix formation  ***
  0    -93.2461036959   0.000000000000 0.03946110  0.00196205  0.2624418 0.7000
  1    -93.2859031417  -0.039799445765 0.02252207  0.00119859  0.0956610 0.7000
                               ***Turning on DIIS***
  2    -93.2974723458  -0.011569204145 0.03854273  0.00168048  0.0411798 0.0000
  3    -93.3208662577  -0.023393911880 0.01930863  0.00100455  0.0537197 0.0000
  4    -93.3237665793  -0.002900321578 0.00820629  0.00043223  0.0314454 0.0000
  5    -93.3248870666  -0.001120487272 0.00225560  0.00011259  0.0063218 0.0000
                      *** Initiating the SOSCF procedure ***
                           *** Shutting down DIIS ***
                      *** Re-Reading the Fockian *** 
                      *** Removing any level shift *** 
ITER      Energy       Delta-E        Grad      Rot      Max-DP    RMS-DP
  6    -93.32493623  -0.0000491681  0.000319  0.000319  0.000670  0.000033
               *** Restarting incremental Fock matrix formation ***
  7    -93.32493477   0.0000014670  0.000229  0.000707  0.000290  0.000021
  8    -93.32493381   0.0000009531  0.000537  0.000391  0.000242  0.000012
  9    -93.32493507  -0.0000012604  0.000016  0.000025  0.000046  0.000002
 10    -93.32493508  -0.0000000025  0.000010  0.000009  0.000011  0.000001
                  ***Gradient check signals convergence***
              ***Rediagonalizing the Fockian in SOSCF/NRSCF***

               *****************************************************
               *                     SUCCESS                       *
               *           SCF CONVERGED AFTER  11 CYCLES          *
               *****************************************************

Old exchange energy                            =     -3.009453587 Eh
New exchange energy                            =     -3.009452450 Eh
Exchange energy change after final integration =      0.000001136 Eh
Total energy after final integration           =    -93.324933942 Eh
Final COS-X integration done in                =     0.096 sec

----------------
TOTAL SCF ENERGY
----------------

Total Energy       :          -93.32493394 Eh           -2539.50056 eV

Components:
Nuclear Repulsion  :           24.01741048 Eh             653.54696 eV
Electronic Energy  :         -117.34234442 Eh           -3193.04752 eV
One Electron Energy:         -173.01950851 Eh           -4708.10018 eV
Two Electron Energy:           55.67716409 Eh            1515.05266 eV
Max COSX asymmetry :            0.00000075 Eh               0.00002 eV

Virial components:
Potential Energy   :         -186.29121105 Eh           -5069.24157 eV
Kinetic Energy     :           92.96627710 Eh            2529.74101 eV
Virial Ratio       :            2.00385792


DFT components:
N(Alpha)           :        7.000000352872 electrons
N(Beta)            :        7.000000352872 electrons
N(Total)           :       14.000000705744 electrons
E(X)               :       -9.034136162884 Eh       
E(C)               :       -0.441179688533 Eh       
E(XC)              :       -9.475315851417 Eh       
DFET-embed. en.    :        0.000000000000 Eh       

---------------
SCF CONVERGENCE
---------------

  Last Energy change         ...   -1.2307e-09  Tolerance :   1.0000e-08
  Last MAX-Density change    ...    6.6613e-16  Tolerance :   1.0000e-07
  Last RMS-Density change    ...    2.3687e-17  Tolerance :   5.0000e-09
  Last Orbital Gradient      ...    1.3048e-06  Tolerance :   1.0000e-05
  Last Orbital Rotation      ...    2.5701e-06  Tolerance :   1.0000e-05

             **** THE GBW FILE WAS UPDATED (HCN_135.gbw) ****
             **** DENSITY HCN_135.scfp WAS UPDATED ****
             **** ENERGY FILE WAS UPDATED (HCN_135.en.tmp) ****
             **** THE GBW FILE WAS UPDATED (HCN_135.gbw) ****
             **** DENSITY HCN_135.scfp WAS UPDATED ****
----------------
ORBITAL ENERGIES
----------------

  NO   OCC          E(Eh)            E(eV) 
   0   2.0000     -14.418689      -392.3525 
   1   2.0000     -10.275076      -279.5990 
   2   2.0000      -0.959190       -26.1009 
   3   2.0000      -0.612853       -16.6766 
   4   2.0000      -0.416053       -11.3214 
   5   2.0000      -0.385337       -10.4855 
   6   2.0000      -0.377521       -10.2729 
   7   0.0000      -0.054188        -1.4745 
   8   0.0000       0.008592         0.2338 
   9   0.0000       0.089563         2.4371 
  10   0.0000       0.126153         3.4328 
  11   0.0000       0.215927         5.8757 
  12   0.0000       0.227130         6.1805 
  13   0.0000       0.275049         7.4845 
  14   0.0000       0.336791         9.1645 
  15   0.0000       0.419178        11.4064 
  16   0.0000       0.438055        11.9201 
  17   0.0000       0.482840        13.1387 
  18   0.0000       0.558051        15.1853 
  19   0.0000       0.612874        16.6772 
  20   0.0000       0.619251        16.8507 
  21   0.0000       0.676425        18.4065 
  22   0.0000       0.813217        22.1288 
  23   0.0000       0.961183        26.1551 
  24   0.0000       1.133843        30.8534 
  25   0.0000       1.160594        31.5814 
  26   0.0000       1.208961        32.8975 
  27   0.0000       1.260224        34.2924 
  28   0.0000       1.367899        37.2224 
  29   0.0000       1.404850        38.2279 
  30   0.0000       1.424915        38.7739 
  31   0.0000       1.530806        41.6553 
  32   0.0000       1.549949        42.1763 
  33   0.0000       1.827065        49.7170 
  34   0.0000       1.893654        51.5289 
  35   0.0000       2.031709        55.2856 
  36   0.0000       2.120945        57.7138 
  37   0.0000       2.138941        58.2035 
  38   0.0000       2.228322        60.6357 
  39   0.0000       2.429395        66.1072 
  40   0.0000       2.562682        69.7341 
  41   0.0000       2.668583        72.6158 
  42   0.0000       2.713154        73.8287 
  43   0.0000       2.857974        77.7694 
  44   0.0000       2.902435        78.9793 
  45   0.0000       2.927997        79.6748 
  46   0.0000       2.994063        81.4726 
  47   0.0000       3.100001        84.3553 
  48   0.0000       3.120925        84.9247 
  49   0.0000       3.363465        91.5245 
  50   0.0000       3.395393        92.3933 
  51   0.0000       3.438637        93.5701 
  52   0.0000       3.875123       105.4475 
  53   0.0000       3.941617       107.2569 
  54   0.0000       3.962689       107.8303 
  55   0.0000       4.108582       111.8002 
  56   0.0000       4.503635       122.5501 
  57   0.0000       4.594609       125.0257 
  58   0.0000       4.601070       125.2015 
  59   0.0000       4.703441       127.9871 
  60   0.0000       4.877776       132.7310 
  61   0.0000       5.067725       137.8998 
  62   0.0000       5.357299       145.7795 
  63   0.0000       5.419840       147.4814 
  64   0.0000       5.505456       149.8111 
  65   0.0000       5.762255       156.7989 
  66   0.0000      22.281740       606.3170 
  67   0.0000      31.887695       867.7083 

                    ********************************
                    * MULLIKEN POPULATION ANALYSIS *
                    ********************************

-----------------------
MULLIKEN ATOMIC CHARGES
-----------------------
   0 C :   -0.165307
   1 N :   -0.041852
   2 H :    0.207159
Sum of atomic charges:    0.0000000

--------------------------------
MULLIKEN REDUCED ORBITAL CHARGES
--------------------------------
  0 C s       :     3.294659  s :     3.294659
      pz      :     0.953138  p :     2.797165
      px      :     0.956741
      py      :     0.887285
      dz2     :     0.020569  d :     0.063770
      dxz     :     0.013035
      dyz     :     0.013178
      dx2y2   :     0.010680
      dxy     :     0.006307
      f0      :     0.001139  f :     0.009713
      f+1     :     0.002402
      f-1     :     0.000408
      f+2     :     0.000834
      f-2     :     0.002092
      f+3     :     0.001403
      f-3     :     0.001435
  1 N s       :     3.725825  s :     3.725825
      pz      :     1.043430  p :     3.269700
      px      :     1.160111
      py      :     1.066159
      dz2     :     0.013691  d :     0.044020
      dxz     :     0.006155
      dyz     :     0.009275
      dx2y2   :     0.005640
      dxy     :     0.009259
      f0      :     0.000466  f :     0.002307
      f+1     :     0.000446
      f-1     :     0.000182
      f+2     :     0.000137
      f-2     :     0.000653
      f+3     :     0.000157
      f-3     :     0.000266
  2 H s       :     0.768460  s :     0.768460
      pz      :     0.005073  p :     0.024381
      px      :     0.015399
      py      :     0.003909


                     *******************************
                     * LOEWDIN POPULATION ANALYSIS *
                     *******************************

----------------------
LOEWDIN ATOMIC CHARGES
----------------------
   0 C :   -0.202714
   1 N :    0.068397
   2 H :    0.134316

-------------------------------
LOEWDIN REDUCED ORBITAL CHARGES
-------------------------------
  0 C s       :     2.983251  s :     2.983251
      pz      :     1.034742  p :     2.946768
      px      :     1.046923
      py      :     0.865103
      dz2     :     0.045969  d :     0.221623
      dxz     :     0.085954
      dyz     :     0.027082
      dx2y2   :     0.039136
      dxy     :     0.023482
      f0      :     0.006363  f :     0.051071
      f+1     :     0.014396
      f-1     :     0.002362
      f+2     :     0.008700
      f-2     :     0.009921
      f+3     :     0.005770
      f-3     :     0.003558
  1 N s       :     3.334053  s :     3.334053
      pz      :     1.184548  p :     3.469274
      px      :     1.261917
      py      :     1.022808
      dz2     :     0.028695  d :     0.112825
      dxz     :     0.036337
      dyz     :     0.015102
      dx2y2   :     0.017158
      dxy     :     0.015534
      f0      :     0.002010  f :     0.015450
      f+1     :     0.004777
      f-1     :     0.000629
      f+2     :     0.003427
      f-2     :     0.002555
      f+3     :     0.001070
      f-3     :     0.000983
  2 H s       :     0.793311  s :     0.793311
      pz      :     0.015495  p :     0.072372
      px      :     0.044429
      py      :     0.012448


                      *****************************
                      * MAYER POPULATION ANALYSIS *
                      *****************************

  NA   - Mulliken gross atomic population
  ZA   - Total nuclear charge
  QA   - Mulliken gross atomic charge
  VA   - Mayer's total valence
  BVA  - Mayer's bonded valence
  FA   - Mayer's free valence

  ATOM       NA         ZA         QA         VA         BVA        FA
  0 C      6.1653     6.0000    -0.1653     3.8845     3.8845     0.0000
  1 N      7.0419     7.0000    -0.0419     2.9814     2.9814     0.0000
  2 H      0.7928     1.0000     0.2072     0.9687     0.9687    -0.0000

  Mayer bond orders larger than 0.100000
B(  0-C ,  1-N ) :   2.9486 B(  0-C ,  2-H ) :   0.9359 

-------
TIMINGS
-------

Total SCF time: 0 days 0 hours 0 min 2 sec 

Total time                  ....       2.002 sec
Sum of individual times     ....       1.850 sec  ( 92.4%)

Fock matrix formation       ....       1.444 sec  ( 72.1%)
  Split-RI-J                ....       0.154 sec  ( 10.7% of F)
  Chain of spheres X        ....       0.710 sec  ( 49.2% of F)
  XC integration            ....       0.327 sec  ( 22.6% of F)
    Basis function eval.    ....       0.049 sec  ( 15.0% of XC)
    Density eval.           ....       0.055 sec  ( 16.8% of XC)
    XC-Functional eval.     ....       0.014 sec  (  4.3% of XC)
    XC-Potential eval.      ....       0.029 sec  (  8.9% of XC)
Diagonalization             ....       0.027 sec  (  1.3%)
Density matrix formation    ....       0.000 sec  (  0.0%)
Population analysis         ....       0.012 sec  (  0.6%)
Initial guess               ....       0.018 sec  (  0.9%)
Orbital Transformation      ....       0.000 sec  (  0.0%)
Orbital Orthonormalization  ....       0.000 sec  (  0.0%)
DIIS solution               ....       0.023 sec  (  1.1%)
SOSCF solution              ....       0.136 sec  (  6.8%)
Grid generation             ....       0.190 sec  (  9.5%)

Maximum memory used throughout the entire SCF-calculation: 58.4 MB

-------------------------   --------------------
FINAL SINGLE POINT ENERGY       -93.324933942177
-------------------------   --------------------



           ************************************************************
           *        Program running with 5 parallel MPI-processes     *
           *              working on a common directory               *
           ************************************************************
------------------------------------------------------------------------------
                         ORCA SCF GRADIENT CALCULATION
------------------------------------------------------------------------------

 ... reading COSX grid (gridx3)
Gradient of the Kohn-Sham DFT energy:
Kohn-Sham wavefunction type      ... RKS
Hartree-Fock exchange scaling    ...    0.250
Number of operators              ...    1
Number of atoms                  ...    3
Basis set dimensions             ...   68
Integral neglect threshold       ... 2.5e-11
Integral primitive cutoff        ... 2.5e-12
SHARK Integral package           ... ON

Nuc. rep. gradient       (SHARK) ... done (  0.0 sec)
HCore & Overlap gradient (SHARK) ... done (  0.0 sec)
RI-J gradient            (SHARK) ... done (  0.0 sec)
COSX-gradient                    ... done (  0.1 sec)
Exchange-correlation gradient    ... done

------------------
CARTESIAN GRADIENT
------------------

   1   C   :   -0.004110373    0.000180178    0.046393200
   2   N   :   -0.010733303    0.000550725   -0.021493113
   3   H   :    0.014823415   -0.000731168   -0.024887532

Difference to translation invariance:
           :   -0.0000202613   -0.0000002655    0.0000125550

Difference to rotation invariance:
           :    0.0000505898    0.0000705972    0.0000611522

Norm of the cartesian gradient     ...    0.0598863513
RMS gradient                       ...    0.0199621171
MAX gradient                       ...    0.0463931997

-------
TIMINGS
-------

Total SCF gradient time            ...        0.366 sec

One electron gradient       ....       0.003 sec  (  0.8%)
RI-J Coulomb gradient       ....       0.044 sec  ( 12.0%)
COSX gradient               ....       0.138 sec  ( 37.7%)
XC gradient                 ....       0.052 sec  ( 14.2%)

Maximum memory used throughout the entire SCFGRAD-calculation: 33.5 MB

                            ***************************************
                            *     ORCA property calculations      *
                            ***************************************

                                    ---------------------
                                    Active property flags
                                    ---------------------
   (+) Dipole Moment
   (+) Chemical Shifts
   (+) Nuclear properties (Hyperfine,Quadrupole)


------------------------------------------------------------------------------
                       ORCA ELECTRIC PROPERTIES CALCULATION
------------------------------------------------------------------------------

Dipole Moment Calculation                       ... on
Quadrupole Moment Calculation                   ... off
Polarizability Calculation                      ... off
GBWName                                         ... HCN_135.gbw
Electron density                                ... HCN_135.scfp
The origin for moment calculation is the CENTER OF MASS  = (-1.186698,  1.780134 -0.802916)

-------------
DIPOLE MOMENT
-------------
                                X             Y             Z
Electronic contribution:      0.41896      -0.02076       0.01795
Nuclear contribution   :     -1.34887       0.06681       0.39645
                        -----------------------------------------
Total Dipole Moment    :     -0.92991       0.04605       0.41439
                        -----------------------------------------
Magnitude (a.u.)       :      1.01910
Magnitude (Debye)      :      2.59036



--------------------
Rotational spectrum 
--------------------
 
Rotational constants in cm-1:    37.756452     1.593618     1.529079 
Rotational constants in MHz : 1131909.950871 47775.479282 45840.644485 

 Dipole components along the rotational axes: 
x,y,z [a.u.] :     0.982305    -0.271385    -0.000005 
x,y,z [Debye]:     2.496821    -0.689806    -0.000013 

 


           ************************************************************
           *        Program running with 5 parallel MPI-processes     *
           *              working on a common directory               *
           ************************************************************
------------------------------------------------------------------------------
                                ORCA EPR/NMR CALCULATION
------------------------------------------------------------------------------

GBWName                      ... HCN_135.gbw
Electron density             ... HCN_135.scfp
Spin density                 ... HCN_135.scfr
Treatment of gauge           ... GIAO (approximations 1/2el = 0,0)
Details of the CP(SCF) procedure:
       Solver   = POPLE   
       MaxIter  =    64   
       Tolerance=    1.000e-04
       COSX Grid=     1   
       Op-0     =   0-  6 =>   7- 67
Multiplicity                 ... 1
g-tensor                     ... 0
NMR chemical shifts          ... 1
NMR spin-spin couplings      ... 0
NMR spectrum                 ... 0
Number of nuclei for epr/nmr ... 3
   Nucleus:   1N 
       Hyperfine : Isotope=   14 I=   1.000 P=  38.568
       Quadrupole: Isotope=   14 I=   1.000 Q=   0.020
       Spin-Orbit: Zeff=   4.550
       Nuclear Spin-Spin: Gn=   0.000
       EPRNMR Input: 
       rho(0)=N f(grad)=N a(iso)=N a(dip)=N a(orb)=N sigma(nmr)=Y spin-spin(nmr)=all-N,DSO-N,PSO-N,FC-N,SD-N
   Nucleus:   0C 
       Hyperfine : Isotope=   13 I=   0.500 P= 134.190
       Quadrupole: Isotope=   13 I=   0.500 Q=   0.000
       Spin-Orbit: Zeff=   3.600
       Nuclear Spin-Spin: Gn=   0.000
       EPRNMR Input: 
       rho(0)=N f(grad)=N a(iso)=N a(dip)=N a(orb)=N sigma(nmr)=Y spin-spin(nmr)=all-N,DSO-N,PSO-N,FC-N,SD-N
   Nucleus:   2H 
       Hyperfine : Isotope=    1 I=   0.500 P= 533.551
       Quadrupole: Isotope=    2 I=   1.000 Q=   0.003
       Spin-Orbit: Zeff=   1.000
       Nuclear Spin-Spin: Gn=   0.000
       EPRNMR Input: 
       rho(0)=N f(grad)=N a(iso)=N a(dip)=N a(orb)=N sigma(nmr)=Y spin-spin(nmr)=all-N,DSO-N,PSO-N,FC-N,SD-N
Forming RHS of the CP-SCF equations         ... 
Calculating right hand sides for GIAO treatment        ... 
  Entering RightHandSide GIAO. ScalHFX=    0.2500 NeedHFX=1
     -> 1-electron GIAO integrals will be done analytically
     -> RIJCOSX used in SCF. Same chosen for GIAO calculation.
     Making grid for GIAO integrations   ...

GRID GIAO
---------

General Integration Accuracy     IntAcc      ... 4.388
Radial Grid Type                 RadialGrid  ... OptM3 with GC (2021)
Angular Grid (max. ang.)         AngularGrid ... 4 (Lebedev-302)
Angular grid pruning method      GridPruning ... 4 (adaptive)
Weight generation scheme         WeightScheme... Becke
Basis function cutoff            BFCut       ... 1.0000e-11
Integration weight cutoff        WCut        ... 1.0000e-14
Angular grids for H and He will be reduced by one unit
Partially contracted basis set               ... off
Rotationally invariant grid construction     ... off

Total number of grid points                  ...    15548
Total number of batches                      ...      244
Average number of points per batch           ...       63
Average number of grid points per atom       ...     5183

  One-electron GIAO integrals (SHARK)     ... done
  Calculating G(B)[P]                     ... (RI-J: SHARK-ok) (COSX-ok) (add-J+K:ok) => dG/dB done
  DFT XC-terms                            ... done
  Extracting occupied and virtual blocks  ... 
  Operator  0  NO=   7 NV=  61 
  Transforming and RHS contribution       ... done
  Adding eps_i * S(B)_ai terms            ... done
  Projecting overlap derivatives          ... done
  Building G[dS/dB_ij] (COSX)             ... done
  Transforming to MO basis                ... done
  Summing G[dS/dB_ij] into RHS contribs.  ... done

  GIAO profiling information: 
    Total GIAO time               ...       0.3 sec
       GIAO 1-electron integrals  ...       0.0 sec (  0.9%)
       GIAO G(dS/dB) terms        ...       0.1 sec ( 16.1%)
       GIAO RI-J                  ...       0.0 sec (  5.9%)
       GIAO COSX                  ...       0.1 sec ( 23.5%)
       GIAO XC-terms              ...       0.1 sec ( 33.1%)

  GIAO right hand side done


------------------------------------------------------------------------------
                           ORCA CP-SCF CALCULATION
------------------------------------------------------------------------------

Input orbitals are from        ... HCN_135.gbw
Input Perturbation             ... HCN_135.pin.tmp
Wavefunction output            ... HCN_135.pout.tmp
Perturbation mode              ... Imaginary perturbation
Solver                         ... POPLE
Max. number of iterations      ... 64
Convergence tolerance          ... 1.000e-04
Integral handling              ... Direct
DFT GridXC                     ... 1
COSX GridX                     ... 1
COSX IntAccX                   ... 3.067
COSX Algorithm                 ... Auto
Number of perturbations        ... 3
Number of operators            ... 1
Orbital ranges used for CP-SCF:
 Operator 0:  Orbitals   0...  6  to   7... 67
Variables per perturbation     ... 427
DFT calculation                         ... on
XC functional terms                     ... off
Hybrid DFT                              ... on
   Exchange mixing (SCF)                ...  0.250
   Exchange mixing (CP-SCF)             ...  0.250
   GGA exch. scaling(SCF)               ...  0.750
   GGA exch. scaling (CP-SCF)           ...  0.750
   GGA corr. scaling (SCF)              ...  1.000
   GGA corr. scaling (CP-SCF)           ...  1.000

CP-SCF GRID
-----------

General Integration Accuracy     IntAcc      ... 3.467
Radial Grid Type                 RadialGrid  ... OptM3 with GC (2021)
Angular Grid (max. ang.)         AngularGrid ... 1 (Lebedev-50)
Angular grid pruning method      GridPruning ... 4 (adaptive)
Weight generation scheme         WeightScheme... Becke
Basis function cutoff            BFCut       ... 1.0000e-11
Integration weight cutoff        WCut        ... 1.0000e-14
Angular grids for H and He will be reduced by one unit
Partially contracted basis set               ... off
Rotationally invariant grid construction     ... off

Total number of grid points                  ...     2355
Total number of batches                      ...       37
Average number of points per batch           ...       63
Average number of grid points per atom       ...      785

CP-SCF GRIDX
------------

General Integration Accuracy     IntAcc      ... 3.067
Radial Grid Type                 RadialGrid  ... OptM3 with GC (2021)
Angular Grid (max. ang.)         AngularGrid ... 1 (Lebedev-50)
Angular grid pruning method      GridPruning ... 4 (adaptive)
Weight generation scheme         WeightScheme... Becke
Basis function cutoff            BFCut       ... 1.0000e-11
Integration weight cutoff        WCut        ... 1.0000e-14
Angular grids for H and He will be reduced by one unit
Partially contracted basis set               ... on
Rotationally invariant grid construction     ... off

Total number of grid points                  ...     1048
Total number of batches                      ...       17
Average number of points per batch           ...       61
Average number of grid points per atom       ...      349

Memory available               ... 1015.8 MB
Memory needed per perturbation ...   0.2 MB
Perturbations treated per batch... 3
Number of batches              ... 1
     CP-SCF ITERATION   0:   3.7153e-01 (   0.0 sec   0/  3 done)
     CP-SCF ITERATION   1:   1.1035e-02 (   0.0 sec   0/  3 done)
     CP-SCF ITERATION   2:   1.3879e-03 (   0.0 sec   0/  3 done)
     CP-SCF ITERATION   3:   1.2329e-04 (   0.0 sec   1/  3 done)
     CP-SCF ITERATION   4:   1.0190e-05 (   0.0 sec   3/  3 done)
                    *** THE CP-SCF HAS CONVERGED ***

Forming final perturbed densities           ... done
Transforming perturbed density to AO basis  ... done

Magnetic field perturbation calculated in  0.608 sec

---------------
CHEMICAL SHIFTS
---------------

Note: using conversion factor for au to ppm alpha^2/2 =   26.625677252 
GIAO: Analytic para- and diamagnetic shielding integrals (SHARK)       ...done
 --------------
 Nucleus   1N :
 --------------

Diamagnetic contribution to the shielding tensor (ppm) : 
           326.393          0.864       -13.077
            -0.534        315.549         0.652
           -11.537          1.436       327.777

Paramagnetic contribution to the shielding tensor (ppm): 
          -188.858        -28.105      -334.858
           -26.710       -727.112        16.555
          -162.349          7.146      -438.057

Total shielding tensor (ppm): 
           137.535        -27.241      -347.935
           -27.244       -411.563        17.206
          -173.886          8.583      -110.280


 Diagonalized sT*s matrix:
 
 sDSO           319.430          334.697          315.592  iso=     323.240
 sPSO          -352.006         -273.518         -728.503  iso=    -451.342
        ---------------  ---------------  ---------------
 Total          -32.576           61.179         -412.911  iso=    -128.102

 --------------
 Nucleus   0C :
 --------------

Diamagnetic contribution to the shielding tensor (ppm) : 
           272.338         -5.121        -5.740
            -0.807        256.388         0.282
            -9.341        -10.054       267.264

Paramagnetic contribution to the shielding tensor (ppm): 
          -151.263         -2.017      -126.072
            -6.318       -279.173         6.240
          -209.522         20.879      -165.998

Total shielding tensor (ppm): 
           121.075         -7.139      -131.812
            -7.125        -22.785         6.522
          -218.863         10.825       101.267


 Diagonalized sT*s matrix:
 
 sDSO           256.135          262.191          277.665  iso=     265.330
 sPSO          -279.272         -314.591           -2.571  iso=    -198.811
        ---------------  ---------------  ---------------
 Total          -23.138          -52.399          275.094  iso=      66.519

 --------------
 Nucleus   2H :
 --------------

Diamagnetic contribution to the shielding tensor (ppm) : 
            39.892         -2.948        -0.442
            -0.887         22.144         0.021
            -1.332         -1.767        24.385

Paramagnetic contribution to the shielding tensor (ppm): 
            -9.018          2.628        -1.102
             0.568          2.275         0.055
           -12.175          2.438         0.122

Total shielding tensor (ppm): 
            30.874         -0.320        -1.545
            -0.319         24.419         0.076
           -13.508          0.671        24.507


 Diagonalized sT*s matrix:
 
 sDSO            27.016           21.997           37.407  iso=      28.807
 sPSO            -7.316            2.406           -1.710  iso=      -2.207
        ---------------  ---------------  ---------------
 Total           19.700           24.403           35.697  iso=      26.600



--------------------------------
CHEMICAL SHIELDING SUMMARY (ppm)
--------------------------------


  Nucleus  Element    Isotropic     Anisotropy
  -------  -------  ------------   ------------
      1       N         -128.102       -427.213 
      0       C           66.519        312.862 
      2       H           26.600         13.646 



Maximum memory used throughout the entire EPRNMR-calculation: 10.2 MB

----------------------------------------------------------------------------
                           ORCA NUMERICAL FREQUENCIES
                              (5-process run)
----------------------------------------------------------------------------

Number of atoms                ... 3
Central differences            ... used
Number of displacements        ... 18
Numerical increment            ... 5.000e-03 bohr
IR-spectrum generation         ... on
Raman-spectrum generation      ... off
Surface Crossing Hessian       ... off

The output will be reduced. Please look at the following files:
SCF program output             ... >HCN_135.lastscf
Integral program output        ... >HCN_135.lastint
Gradient program output        ... >HCN_135.lastgrad
Dipole moment program output   ... >HCN_135.lastmom
AutoCI program output          ... >HCN_135.lastautoci

	<< Calculating on displaced geometry   2 (of  18) >>
	<< Calculating on displaced geometry   3 (of  18) >>
	<< Calculating on displaced geometry   4 (of  18) >>
	<< Calculating on displaced geometry   5 (of  18) >>
	<< Calculating on displaced geometry   1 (of  18) >>
	<< Calculating on displaced geometry   6 (of  18) >>
	<< Calculating on displaced geometry   7 (of  18) >>
	<< Calculating on displaced geometry   8 (of  18) >>
	<< Calculating on displaced geometry   9 (of  18) >>
	<< Calculating on displaced geometry  10 (of  18) >>
	<< Calculating on displaced geometry  11 (of  18) >>
	<< Calculating on displaced geometry  14 (of  18) >>
	<< Calculating on displaced geometry  13 (of  18) >>
	<< Calculating on displaced geometry  12 (of  18) >>
	<< Calculating on displaced geometry  15 (of  18) >>
	<< Calculating on displaced geometry  17 (of  18) >>
	<< Calculating on displaced geometry  16 (of  18) >>
	<< Calculating on displaced geometry  18 (of  18) >>

-----------------------
VIBRATIONAL FREQUENCIES
-----------------------

Scaling factor for frequencies =  1.000000000 (already applied!)

   0:         0.00 cm**-1
   1:         0.00 cm**-1
   2:         0.00 cm**-1
   3:         0.00 cm**-1
   4:         0.00 cm**-1
   5:         0.00 cm**-1
   6:       494.53 cm**-1
   7:      2179.18 cm**-1
   8:      3519.29 cm**-1


------------
NORMAL MODES
------------

These modes are the cartesian displacements weighted by the diagonal matrix
M(i,i)=1/sqrt(m[i]) where m[i] is the mass of the displaced atom
Thus, these vectors are normalized but *not* orthogonal

                  0          1          2          3          4          5    
      0       0.000000   0.000000   0.000000   0.000000   0.000000   0.000000
      1       0.000000   0.000000   0.000000   0.000000   0.000000   0.000000
      2       0.000000   0.000000   0.000000   0.000000   0.000000   0.000000
      3       0.000000   0.000000   0.000000   0.000000   0.000000   0.000000
      4       0.000000   0.000000   0.000000   0.000000   0.000000   0.000000
      5       0.000000   0.000000   0.000000   0.000000   0.000000   0.000000
      6       0.000000   0.000000   0.000000   0.000000   0.000000   0.000000
      7       0.000000   0.000000   0.000000   0.000000   0.000000   0.000000
      8       0.000000   0.000000   0.000000   0.000000   0.000000   0.000000
                  6          7          8    
      0      -0.065695   0.355874   0.099211
      1       0.003269  -0.017595  -0.004914
      2      -0.123788  -0.382257  -0.023639
      3       0.056776  -0.353785  -0.013648
      4      -0.002818   0.017496   0.000674
      5       0.035058   0.339893   0.017416
      6      -0.006150   0.675651  -0.992518
      7       0.000197  -0.033466   0.049184
      8       0.987852  -0.168234   0.039664


-----------
IR SPECTRUM
-----------

 Mode   freq       eps      Int      T**2         TX        TY        TZ
       cm**-1   L/(mol*cm) km/mol    a.u.
----------------------------------------------------------------------------
  6:    494.53   0.020669  104.45  0.013043  (-0.038770  0.001903  0.107407)
  7:   2179.18   0.001069    5.40  0.000153  ( 0.005589 -0.000275  0.011032)
  8:   3519.29   0.015521   78.43  0.001376  (-0.037010  0.001849  0.001762)

* The epsilon (eps) is given for a Dirac delta lineshape.
** The dipole moment derivative (T) already includes vibrational overlap.

The first frequency considered to be a vibration is 6
The total number of vibrations considered is 3


--------------------------
THERMOCHEMISTRY AT 298.15K
--------------------------

Temperature         ... 298.15 K
Pressure            ... 1.00 atm
Total Mass          ... 27.03 AMU

Throughout the following assumptions are being made:
  (1) The electronic state is orbitally nondegenerate
  (2) There are no thermally accessible electronically excited states
  (3) Hindered rotations indicated by low frequency modes are not
      treated as such but are treated as vibrations and this may
      cause some error
  (4) All equations used are the standard statistical mechanics
      equations for an ideal gas
  (5) All vibrations are strictly harmonic

freq.     494.53  E(vib)   ...       0.14 
freq.    2179.18  E(vib)   ...       0.00 
freq.    3519.29  E(vib)   ...       0.00 

------------
INNER ENERGY
------------

The inner energy is: U= E(el) + E(ZPE) + E(vib) + E(rot) + E(trans)
    E(el)   - is the total energy from the electronic structure calculation
              = E(kin-el) + E(nuc-el) + E(el-el) + E(nuc-nuc)
    E(ZPE)  - the the zero temperature vibrational energy from the frequency calculation
    E(vib)  - the the finite temperature correction to E(ZPE) due to population
              of excited vibrational states
    E(rot)  - is the rotational thermal energy
    E(trans)- is the translational thermal energy

Summary of contributions to the inner energy U:
Electronic energy                ...    -93.32493394 Eh
Zero point energy                ...      0.01410869 Eh       8.85 kcal/mol
Thermal vibrational correction   ...      0.00022847 Eh       0.14 kcal/mol
Thermal rotational correction    ...      0.00141627 Eh       0.89 kcal/mol
Thermal translational correction ...      0.00141627 Eh       0.89 kcal/mol
-----------------------------------------------------------------------
Total thermal energy                    -93.30776424 Eh


Summary of corrections to the electronic energy:
(perhaps to be used in another calculation)
Total thermal correction                  0.00306101 Eh       1.92 kcal/mol
Non-thermal (ZPE) correction              0.01410869 Eh       8.85 kcal/mol
-----------------------------------------------------------------------
Total correction                          0.01716971 Eh      10.77 kcal/mol


--------
ENTHALPY
--------

The enthalpy is H = U + kB*T
                kB is Boltzmann's constant
Total free energy                 ...    -93.30776424 Eh 
Thermal Enthalpy correction       ...      0.00094421 Eh       0.59 kcal/mol
-----------------------------------------------------------------------
Total Enthalpy                    ...    -93.30682003 Eh


Note: Rotational entropy computed according to Herzberg 
Infrared and Raman Spectra, Chapter V,1, Van Nostrand Reinhold, 1945 
Point Group:  Cs, Symmetry Number:   1  
Rotational constants in cm-1:    37.756452     1.593618     1.529079 

Vibrational entropy computed according to the QRRHO of S. Grimme
Chem.Eur.J. 2012 18 9955


-------
ENTROPY
-------

The entropy contributions are T*S = T*(S(el)+S(vib)+S(rot)+S(trans))
     S(el)   - electronic entropy
     S(vib)  - vibrational entropy
     S(rot)  - rotational entropy
     S(trans)- translational entropy
The entropies will be listed as multiplied by the temperature to get
units of energy

Electronic entropy                ...      0.00000000 Eh      0.00 kcal/mol
Vibrational entropy               ...      0.00032004 Eh      0.20 kcal/mol
Rotational entropy                ...      0.00737610 Eh      4.63 kcal/mol
Translational entropy             ...      0.01701823 Eh     10.68 kcal/mol
-----------------------------------------------------------------------
Final entropy term                ...      0.02471438 Eh     15.51 kcal/mol

In case the symmetry of your molecule has not been determined correctly
or in case you have a reason to use a different symmetry number we print 
out the resulting rotational entropy values for sn=1,12 :
 --------------------------------------------------------
|  sn= 1 | S(rot)=       0.00737610 Eh      4.63 kcal/mol|
|  sn= 2 | S(rot)=       0.00672164 Eh      4.22 kcal/mol|
|  sn= 3 | S(rot)=       0.00633881 Eh      3.98 kcal/mol|
|  sn= 4 | S(rot)=       0.00606718 Eh      3.81 kcal/mol|
|  sn= 5 | S(rot)=       0.00585650 Eh      3.67 kcal/mol|
|  sn= 6 | S(rot)=       0.00568435 Eh      3.57 kcal/mol|
|  sn= 7 | S(rot)=       0.00553881 Eh      3.48 kcal/mol|
|  sn= 8 | S(rot)=       0.00541273 Eh      3.40 kcal/mol|
|  sn= 9 | S(rot)=       0.00530152 Eh      3.33 kcal/mol|
|  sn=10 | S(rot)=       0.00520204 Eh      3.26 kcal/mol|
|  sn=11 | S(rot)=       0.00511205 Eh      3.21 kcal/mol|
|  sn=12 | S(rot)=       0.00502990 Eh      3.16 kcal/mol|
 --------------------------------------------------------


-------------------
GIBBS FREE ENERGY
-------------------

The Gibbs free energy is G = H - T*S

Total enthalpy                    ...    -93.30682003 Eh 
Total entropy correction          ...     -0.02471438 Eh    -15.51 kcal/mol
-----------------------------------------------------------------------
Final Gibbs free energy         ...    -93.33153440 Eh

For completeness - the Gibbs free energy minus the electronic energy
G-E(el)                           ...     -0.00660046 Eh     -4.14 kcal/mol



Timings for individual modules:

Sum of individual times         ...       73.493 sec (=   1.225 min)
GTO integral calculation        ...        4.469 sec (=   0.074 min)   6.1 %
SCF iterations                  ...        7.361 sec (=   0.123 min)  10.0 %
EPR/NMR calculation             ...        2.319 sec (=   0.039 min)   3.2 %
SCF Gradient evaluation         ...        4.025 sec (=   0.067 min)   5.5 %
Numerical frequency calculation ...       55.319 sec (=   0.922 min)  75.3 %
                             ****ORCA TERMINATED NORMALLY****
TOTAL RUN TIME: 0 days 0 hours 1 minutes 6 seconds 765 msec
