
                                 *****************
                                 * O   R   C   A *
                                 *****************

                                            #,                                       
                                            ###                                      
                                            ####                                     
                                            #####                                    
                                            ######                                   
                                           ########,                                 
                                     ,,################,,,,,                         
                               ,,#################################,,                 
                          ,,##########################################,,             
                       ,#########################################, ''#####,          
                    ,#############################################,,   '####,        
                  ,##################################################,,,,####,       
                ,###########''''           ''''###############################       
              ,#####''   ,,,,##########,,,,          '''####'''          '####       
            ,##' ,,,,###########################,,,                        '##       
           ' ,,###''''                  '''############,,,                           
         ,,##''                                '''############,,,,        ,,,,,,###''
      ,#''                                            '''#######################'''  
     '                                                          ''''####''''         
             ,#######,   #######,   ,#######,      ##                                
            ,#'     '#,  ##    ##  ,#'     '#,    #''#        ######   ,####,        
            ##       ##  ##   ,#'  ##            #'  '#       #        #'  '#        
            ##       ##  #######   ##           ,######,      #####,   #    #        
            '#,     ,#'  ##    ##  '#,     ,#' ,#      #,         ##   #,  ,#        
             '#######'   ##     ##  '#######'  #'      '#     #####' # '####'        



                  #######################################################
                  #                        -***-                        #
                  #          Department of theory and spectroscopy      #
                  #    Directorship and core code : Frank Neese         #
                  #        Max Planck Institute fuer Kohlenforschung    #
                  #                Kaiser Wilhelm Platz 1               #
                  #                 D-45470 Muelheim/Ruhr               #
                  #                      Germany                        #
                  #                                                     #
                  #                  All rights reserved                #
                  #                        -***-                        #
                  #######################################################


                         Program Version 5.0.3 -  RELEASE  -


 With contributions from (in alphabetic order):
   Daniel Aravena         : Magnetic Suceptibility
   Michael Atanasov       : Ab Initio Ligand Field Theory (pilot matlab implementation)
   Alexander A. Auer      : GIAO ZORA, VPT2 properties, NMR spectrum
   Ute Becker             : Parallelization
   Giovanni Bistoni       : ED, misc. LED, open-shell LED, HFLD
   Martin Brehm           : Molecular dynamics
   Dmytro Bykov           : SCF Hessian
   Vijay G. Chilkuri      : MRCI spin determinant printing, contributions to CSF-ICE
   Dipayan Datta          : RHF DLPNO-CCSD density
   Achintya Kumar Dutta   : EOM-CC, STEOM-CC
   Dmitry Ganyushin       : Spin-Orbit,Spin-Spin,Magnetic field MRCI
   Miquel Garcia          : C-PCM and meta-GGA Hessian, CC/C-PCM, Gaussian charge scheme
   Yang Guo               : DLPNO-NEVPT2, F12-NEVPT2, CIM, IAO-localization
   Andreas Hansen         : Spin unrestricted coupled pair/coupled cluster methods
   Benjamin Helmich-Paris : MC-RPA, TRAH-SCF, COSX integrals
   Lee Huntington         : MR-EOM, pCC
   Robert Izsak           : Overlap fitted RIJCOSX, COSX-SCS-MP3, EOM
   Marcus Kettner         : VPT2
   Christian Kollmar      : KDIIS, OOCD, Brueckner-CCSD(T), CCSD density, CASPT2, CASPT2-K
   Simone Kossmann        : Meta GGA functionals, TD-DFT gradient, OOMP2, MP2 Hessian
   Martin Krupicka        : Initial AUTO-CI
   Lucas Lang             : DCDCAS
   Marvin Lechner         : AUTO-CI (C++ implementation), FIC-MRCC
   Dagmar Lenk            : GEPOL surface, SMD
   Dimitrios Liakos       : Extrapolation schemes; Compound Job, initial MDCI parallelization
   Dimitrios Manganas     : Further ROCIS development; embedding schemes
   Dimitrios Pantazis     : SARC Basis sets
   Anastasios Papadopoulos: AUTO-CI, single reference methods and gradients
   Taras Petrenko         : DFT Hessian,TD-DFT gradient, ASA, ECA, R-Raman, ABS, FL, XAS/XES, NRVS
   Peter Pinski           : DLPNO-MP2, DLPNO-MP2 Gradient
   Christoph Reimann      : Effective Core Potentials
   Marius Retegan         : Local ZFS, SOC
   Christoph Riplinger    : Optimizer, TS searches, QM/MM, DLPNO-CCSD(T), (RO)-DLPNO pert. Triples
   Tobias Risthaus        : Range-separated hybrids, TD-DFT gradient, RPA, STAB
   Michael Roemelt        : Original ROCIS implementation
   Masaaki Saitow         : Open-shell DLPNO-CCSD energy and density
   Barbara Sandhoefer     : DKH picture change effects
   Avijit Sen             : IP-ROCIS
   Kantharuban Sivalingam : CASSCF convergence, NEVPT2, FIC-MRCI
   Bernardo de Souza      : ESD, SOC TD-DFT
   Georgi Stoychev        : AutoAux, RI-MP2 NMR, DLPNO-MP2 response
   Willem Van den Heuvel  : Paramagnetic NMR
   Boris Wezisla          : Elementary symmetry handling
   Frank Wennmohs         : Technical directorship


 We gratefully acknowledge several colleagues who have allowed us to
 interface, adapt or use parts of their codes:
   Stefan Grimme, W. Hujo, H. Kruse, P. Pracht,  : VdW corrections, initial TS optimization,
                  C. Bannwarth, S. Ehlert          DFT functionals, gCP, sTDA/sTD-DF
   Ed Valeev, F. Pavosevic, A. Kumar             : LibInt (2-el integral package), F12 methods
   Garnet Chan, S. Sharma, J. Yang, R. Olivares  : DMRG
   Ulf Ekstrom                                   : XCFun DFT Library
   Mihaly Kallay                                 : mrcc  (arbitrary order and MRCC methods)
   Jiri Pittner, Ondrej Demel                    : Mk-CCSD
   Frank Weinhold                                : gennbo (NPA and NBO analysis)
   Christopher J. Cramer and Donald G. Truhlar   : smd solvation model
   Lars Goerigk                                  : TD-DFT with DH, B97 family of functionals
   V. Asgeirsson, H. Jonsson                     : NEB implementation
   FAccTs GmbH                                   : IRC, NEB, NEB-TS, DLPNO-Multilevel, CI-OPT
                                                   MM, QMMM, 2- and 3-layer-ONIOM, Crystal-QMMM,
                                                   LR-CPCM, SF, NACMEs, symmetry and pop. for TD-DFT,
                                                   nearIR, NL-DFT gradient (VV10), updates on ESD,
                                                   ML-optimized integration grids
   S Lehtola, MJT Oliveira, MAL Marques          : LibXC Library
   Liviu Ungur et al                             : ANISO software


 Your calculation uses the libint2 library for the computation of 2-el integrals
 For citations please refer to: http://libint.valeyev.net

 Your ORCA version has been built with support for libXC version: 5.1.0
 For citations please refer to: https://tddft.org/programs/libxc/

 This ORCA versions uses:
   CBLAS   interface :  Fast vector & matrix operations
   LAPACKE interface :  Fast linear algebra routines
   Shared memory     :  Shared parallel matrices


SCAN-COORDS
================================================================================

----- Orbital basis set information -----
Your calculation utilizes the basis: def2-TZVP
   F. Weigend and R. Ahlrichs, Phys. Chem. Chem. Phys. 7, 3297 (2005).

----- AuxJ basis set information -----
Your calculation utilizes the auxiliary basis: def2/J
   F. Weigend, Phys. Chem. Chem. Phys. 8, 1057 (2006).

================================================================================
                                        WARNINGS
                       Please study these warnings very carefully!
================================================================================

WARNING: Gradients needed for Numerical Frequencies
  ===> : Setting RunTyp to EnGrad

WARNING: The environment variable RSH_COMMAND is not set!
  ===> : All Displacements for the Numerical Hessian or Gradient calculation
         will be started on localhost

INFO   : the flag for use of the SHARK integral package has been found!

================================================================================
                                       INPUT FILE
================================================================================
NAME = C2N2_40.inp
|  1> ! PAL5 PBE0 NumFreq
|  2> %method
|  3>         method DFT
|  4>         runtyp Energy
|  5> end
|  6> %basis
|  7>         basis "def2-TZVP"
|  8> end
|  9> %coords
| 10>         CTyp xyz
| 11>         Charge 0
| 12>         Mult 1
| 13>         Units Angs
| 14>         coords
| 15> 	#53.3
| 16> 	C      0.901163    0.213223   -0.028373
| 17> 	C      2.433052    0.225083   -0.148833
| 18> 	H      0.575752   -0.610197    0.611338
| 19> 	H      0.442773    0.090317   -1.012197
| 20> 	H      0.545988    1.150789    0.405264
| 21> 	H      2.763812   -0.521759   -0.874150
| 22> 	H      2.781611    1.206533   -0.477840
| 23> 	H      2.892631   -0.000931    0.815945
| 24> 	end
| 25> end
| 26> %eprnmr
| 27>         NMRShielding 1
| 28>         Nuclei = all C {shift}
| 29>         Nuclei = all H {shift}
| 30> endd                         ****END OF INPUT****
================================================================================

                     *******************************
                     * Energy+Gradient Calculation *
                     *******************************

---------------------------------
CARTESIAN COORDINATES (ANGSTROEM)
---------------------------------
  C      0.901163    0.213223   -0.028373
  C      2.433052    0.225083   -0.148833
  H      0.575752   -0.610197    0.611338
  H      0.442773    0.090317   -1.012197
  H      0.545988    1.150789    0.405264
  H      2.763812   -0.521759   -0.874150
  H      2.781611    1.206533   -0.477840
  H      2.892631   -0.000931    0.815945

----------------------------
CARTESIAN COORDINATES (A.U.)
----------------------------
  NO LB      ZA    FRAG     MASS         X           Y           Z
   0 C     6.0000    0    12.011    1.702951    0.402933   -0.053617
   1 C     6.0000    0    12.011    4.597802    0.425345   -0.281254
   2 H     1.0000    0     1.008    1.088014   -1.153105    1.155261
   3 H     1.0000    0     1.008    0.836720    0.170674   -1.912775
   4 H     1.0000    0     1.008    1.031768    2.174676    0.765838
   5 H     1.0000    0     1.008    5.222848   -0.985982   -1.651904
   6 H     1.0000    0     1.008    5.256483    2.280017   -0.902987
   7 H     1.0000    0     1.008    5.466280   -0.001759    1.541913

--------------------------------
INTERNAL COORDINATES (ANGSTROEM)
--------------------------------
 C      0   0   0     0.000000000000     0.00000000     0.00000000
 C      1   0   0     1.536663652047     0.00000000     0.00000000
 H      1   2   0     1.092310843507   110.40858379     0.00000000
 H      1   2   3     1.092308079212   110.40244429   240.00054379
 H      1   2   3     1.092346251310   110.40374742   120.00171696
 H      2   1   3     1.092364362771   110.40327350    79.64523576
 H      2   1   3     1.092237650436   110.40662493   199.64873492
 H      2   1   3     1.092287404817   110.40202841   319.65219747

---------------------------
INTERNAL COORDINATES (A.U.)
---------------------------
 C      0   0   0     0.000000000000     0.00000000     0.00000000
 C      1   0   0     2.903873462319     0.00000000     0.00000000
 H      1   2   0     2.064168347340   110.40858379     0.00000000
 H      1   2   3     2.064163123580   110.40244429   240.00054379
 H      1   2   3     2.064235258391   110.40374742   120.00171696
 H      2   1   3     2.064269484093   110.40327350    79.64523576
 H      2   1   3     2.064030032482   110.40662493   199.64873492
 H      2   1   3     2.064124054635   110.40202841   319.65219747

---------------------
BASIS SET INFORMATION
---------------------
There are 2 groups of distinct atoms

 Group   1 Type C   : 11s6p2d1f contracted to 5s3p2d1f pattern {62111/411/11/1}
 Group   2 Type H   : 5s1p contracted to 3s1p pattern {311/1}

Atom   0C    basis set group =>   1
Atom   1C    basis set group =>   1
Atom   2H    basis set group =>   2
Atom   3H    basis set group =>   2
Atom   4H    basis set group =>   2
Atom   5H    basis set group =>   2
Atom   6H    basis set group =>   2
Atom   7H    basis set group =>   2
---------------------------------
AUXILIARY/J BASIS SET INFORMATION
---------------------------------
There are 2 groups of distinct atoms

 Group   1 Type C   : 12s5p4d2f1g contracted to 6s4p3d1f1g pattern {711111/2111/211/2/1}
 Group   2 Type H   : 5s2p1d contracted to 3s1p1d pattern {311/2/1}

Atom   0C    basis set group =>   1
Atom   1C    basis set group =>   1
Atom   2H    basis set group =>   2
Atom   3H    basis set group =>   2
Atom   4H    basis set group =>   2
Atom   5H    basis set group =>   2
Atom   6H    basis set group =>   2
Atom   7H    basis set group =>   2


           ************************************************************
           *        Program running with 5 parallel MPI-processes     *
           *              working on a common directory               *
           ************************************************************
------------------------------------------------------------------------------
                           ORCA GTO INTEGRAL CALCULATION
                           -- RI-GTO INTEGRALS CHOSEN --
------------------------------------------------------------------------------
------------------------------------------------------------------------------
                   ___                                                        
                  /   \      - P O W E R E D   B Y -                         
                 /     \                                                     
                 |  |  |   _    _      __       _____    __    __             
                 |  |  |  | |  | |    /  \     |  _  \  |  |  /  |          
                  \  \/   | |  | |   /    \    | | | |  |  | /  /          
                 / \  \   | |__| |  /  /\  \   | |_| |  |  |/  /          
                |  |  |   |  __  | /  /__\  \  |    /   |      \           
                |  |  |   | |  | | |   __   |  |    \   |  |\   \          
                \     /   | |  | | |  |  |  |  | |\  \  |  | \   \       
                 \___/    |_|  |_| |__|  |__|  |_| \__\ |__|  \__/        
                                                                              
                      - O R C A' S   B I G   F R I E N D -                    
                                      &                                       
                       - I N T E G R A L  F E E D E R -                       
                                                                              
 v1 FN, 2020, v2 2021                                                         
------------------------------------------------------------------------------


Reading SHARK input file C2N2_40.SHARKINP.tmp ... ok
----------------------
SHARK INTEGRAL PACKAGE
----------------------

Number of atoms                             ...      8
Number of basis functions                   ...     98
Number of shells                            ...     46
Maximum angular momentum                    ...      3
Integral batch strategy                     ... SHARK/LIBINT Hybrid
RI-J (if used) integral strategy            ... SPLIT-RIJ (Revised 2003 algorithm where possible)
Printlevel                                  ...      1
Contraction scheme used                     ... SEGMENTED contraction
Coulomb Range Separation                    ... NOT USED
Exchange Range Separation                   ... NOT USED
Finite Nucleus Model                        ... NOT USED
Auxiliary Coulomb fitting basis             ... AVAILABLE
   # of basis functions in Aux-J            ...    164
   # of shells in Aux-J                     ...     60
   Maximum angular momentum in Aux-J        ...      4
Auxiliary J/K fitting basis                 ... NOT available
Auxiliary Correlation fitting basis         ... NOT available
Auxiliary 'external' fitting basis          ... NOT available
Integral threshold                          ...     2.500000e-11
Primitive cut-off                           ...     2.500000e-12
Primitive pair pre-selection threshold      ...     2.500000e-12

Calculating pre-screening integrals         ... done (  0.0 sec) Dimension = 46
Organizing shell pair data                  ... done (  0.0 sec)
Shell pair information
Total number of shell pairs                 ...      1081
Shell pairs after pre-screening             ...      1080
Total number of primitive shell pairs       ...      2988
Primitive shell pairs kept                  ...      2664
          la=0 lb=0:    405 shell pairs
          la=1 lb=0:    336 shell pairs
          la=1 lb=1:     78 shell pairs
          la=2 lb=0:    112 shell pairs
          la=2 lb=1:     48 shell pairs
          la=2 lb=2:     10 shell pairs
          la=3 lb=0:     56 shell pairs
          la=3 lb=1:     24 shell pairs
          la=3 lb=2:      8 shell pairs
          la=3 lb=3:      3 shell pairs

Calculating one electron integrals          ... done (  0.0 sec)
Calculating RI/J V-Matrix + Cholesky decomp.... done (  0.0 sec)
Calculating Nuclear repulsion               ... done (  0.0 sec) ENN=     42.171700600336 Eh

SHARK setup successfully completed in   0.1 seconds

Maximum memory used throughout the entire GTOINT-calculation: 14.6 MB


           ************************************************************
           *        Program running with 5 parallel MPI-processes     *
           *              working on a common directory               *
           ************************************************************
-------------------------------------------------------------------------------
                                 ORCA SCF
-------------------------------------------------------------------------------

------------
SCF SETTINGS
------------
Hamiltonian:
 Density Functional     Method          .... DFT(GTOs)
 Exchange Functional    Exchange        .... PBE
   PBE kappa parameter   XKappa         ....  0.804000
   PBE mue parameter    XMuePBE         ....  0.219520
 Correlation Functional Correlation     .... PBE
   PBE beta parameter  CBetaPBE         ....  0.066725
 LDA part of GGA corr.  LDAOpt          .... PW91-LDA
 Gradients option       PostSCFGGA      .... off
 Hybrid DFT is turned on
   Fraction HF Exchange ScalHFX         ....  0.250000
   Scaling of DF-GGA-X  ScalDFX         ....  0.750000
   Scaling of DF-GGA-C  ScalDFC         ....  1.000000
   Scaling of DF-LDA-C  ScalLDAC        ....  1.000000
   Perturbative correction              ....  0.000000
   Density functional embedding theory  .... OFF
   NL short-range parameter             ....  6.900000
 RI-approximation to the Coulomb term is turned on
   Number of AuxJ basis functions       .... 164
   RIJ-COSX (HFX calculated with COS-X)).... on


General Settings:
 Integral files         IntName         .... C2N2_40
 Hartree-Fock type      HFTyp           .... RHF
 Total Charge           Charge          ....    0
 Multiplicity           Mult            ....    1
 Number of Electrons    NEL             ....   18
 Basis Dimension        Dim             ....   98
 Nuclear Repulsion      ENuc            ....     42.1717006003 Eh

Convergence Acceleration:
 DIIS                   CNVDIIS         .... on
   Start iteration      DIISMaxIt       ....    12
   Startup error        DIISStart       ....  0.200000
   # of expansion vecs  DIISMaxEq       ....     5
   Bias factor          DIISBfac        ....   1.050
   Max. coefficient     DIISMaxC        ....  10.000
 Trust-Rad. Augm. Hess. CNVTRAH         .... auto
   Auto Start mean grad. ratio tolernc. ....  1.125000
   Auto Start start iteration           ....    20
   Auto Start num. interpolation iter.  ....    10
   Max. Number of Micro iterations      ....    16
   Max. Number of Macro iterations      .... Maxiter - #DIIS iter
   Number of Davidson start vectors     ....     2
   Converg. threshold I  (grad. norm)   ....   1.000e-05
   Converg. threshold II (energy diff.) ....   1.000e-08
   Grad. Scal. Fac. for Micro threshold ....   0.100
   Minimum threshold for Micro iter.    ....   0.010
   NR start threshold (gradient norm)   ....   0.001
   Initial trust radius                 ....   0.400
   Minimum AH scaling param. (alpha)    ....   1.000
   Maximum AH scaling param. (alpha)    .... 1000.000
   Orbital update algorithm             .... Taylor
   White noise on init. David. guess    .... on
   Maximum white noise                  ....   0.010
   Quad. conv. algorithm                .... NR
 SOSCF                  CNVSOSCF        .... on
   Start iteration      SOSCFMaxIt      ....   150
   Startup grad/error   SOSCFStart      ....  0.003300
 Level Shifting         CNVShift        .... on
   Level shift para.    LevelShift      ....    0.2500
   Turn off err/grad.   ShiftErr        ....    0.0010
 Zerner damping         CNVZerner       .... off
 Static damping         CNVDamp         .... on
   Fraction old density DampFac         ....    0.7000
   Max. Damping (<1)    DampMax         ....    0.9800
   Min. Damping (>=0)   DampMin         ....    0.0000
   Turn off err/grad.   DampErr         ....    0.1000
 Fernandez-Rico         CNVRico         .... off

SCF Procedure:
 Maximum # iterations   MaxIter         ....   125
 SCF integral mode      SCFMode         .... Direct
   Integral package                     .... SHARK and LIBINT hybrid scheme
 Reset frequency        DirectResetFreq ....    20
 Integral Threshold     Thresh          ....  2.500e-11 Eh
 Primitive CutOff       TCut            ....  2.500e-12 Eh

Convergence Tolerance:
 Convergence Check Mode ConvCheckMode   .... Total+1el-Energy
 Convergence forced     ConvForced      .... 0
 Energy Change          TolE            ....  1.000e-08 Eh
 1-El. energy change                    ....  1.000e-05 Eh
 Orbital Gradient       TolG            ....  1.000e-05
 Orbital Rotation angle TolX            ....  1.000e-05
 DIIS Error             TolErr          ....  5.000e-07


Diagonalization of the overlap matrix:
Smallest eigenvalue                        ... 5.579e-04
Time for diagonalization                   ...    0.002 sec
Threshold for overlap eigenvalues          ... 1.000e-08
Number of eigenvalues below threshold      ... 0
Time for construction of square roots      ...    0.005 sec
Total time needed                          ...    0.007 sec

Time for model grid setup =    0.048 sec

------------------------------
INITIAL GUESS: MODEL POTENTIAL
------------------------------
Loading Hartree-Fock densities                     ... done
Calculating cut-offs                               ... done
Initializing the effective Hamiltonian             ... done
Setting up the integral package (SHARK)            ... done
Starting the Coulomb interaction                   ... done (   0.0 sec)
Reading the grid                                   ... done
Mapping shells                                     ... done
Starting the XC term evaluation                    ... done (   0.0 sec)
  promolecular density results
     # of electrons  =     17.998254678
     EX              =    -11.972854858
     EC              =     -0.554668347
     EX+EC           =    -12.527523205
Transforming the Hamiltonian                       ... done (   0.0 sec)
Diagonalizing the Hamiltonian                      ... done (   0.0 sec)
Back transforming the eigenvectors                 ... done (   0.0 sec)
Now organizing SCF variables                       ... done
                      ------------------
                      INITIAL GUESS DONE (   0.1 sec)
                      ------------------
-------------------
DFT GRID GENERATION
-------------------

General Integration Accuracy     IntAcc      ... 4.388
Radial Grid Type                 RadialGrid  ... OptM3 with GC (2021)
Angular Grid (max. ang.)         AngularGrid ... 4 (Lebedev-302)
Angular grid pruning method      GridPruning ... 4 (adaptive)
Weight generation scheme         WeightScheme... Becke
Basis function cutoff            BFCut       ... 1.0000e-11
Integration weight cutoff        WCut        ... 1.0000e-14
Angular grids for H and He will be reduced by one unit
Partially contracted basis set               ... off
Rotationally invariant grid construction     ... off

Total number of grid points                  ...    31669
Total number of batches                      ...      498
Average number of points per batch           ...       63
Average number of grid points per atom       ...     3959
Time for grid setup =    0.112 sec

--------------------
COSX GRID GENERATION
--------------------

GRIDX 1
-------
General Integration Accuracy     IntAcc      ... 3.816
Radial Grid Type                 RadialGrid  ... OptM3 with GC (2021)
Angular Grid (max. ang.)         AngularGrid ... 1 (Lebedev-50)
Angular grid pruning method      GridPruning ... 4 (adaptive)
Weight generation scheme         WeightScheme... Becke
Basis function cutoff            BFCut       ... 1.0000e-11
Integration weight cutoff        WCut        ... 1.0000e-14
Angular grids for H and He will be reduced by one unit
Partially contracted basis set               ... on
Rotationally invariant grid construction     ... off

Total number of grid points                  ...     4117
Total number of batches                      ...       69
Average number of points per batch           ...       59
Average number of grid points per atom       ...      515
UseSFitting                                  ... on

GRIDX 2
-------
General Integration Accuracy     IntAcc      ... 4.020
Radial Grid Type                 RadialGrid  ... OptM3 with GC (2021)
Angular Grid (max. ang.)         AngularGrid ... 2 (Lebedev-110)
Angular grid pruning method      GridPruning ... 4 (adaptive)
Weight generation scheme         WeightScheme... Becke
Basis function cutoff            BFCut       ... 1.0000e-11
Integration weight cutoff        WCut        ... 1.0000e-14
Angular grids for H and He will be reduced by one unit
Partially contracted basis set               ... on
Rotationally invariant grid construction     ... off

Total number of grid points                  ...     8400
Total number of batches                      ...      136
Average number of points per batch           ...       61
Average number of grid points per atom       ...     1050
UseSFitting                                  ... on

GRIDX 3
-------
General Integration Accuracy     IntAcc      ... 4.338
Radial Grid Type                 RadialGrid  ... OptM3 with GC (2021)
Angular Grid (max. ang.)         AngularGrid ... 3 (Lebedev-194)
Angular grid pruning method      GridPruning ... 4 (adaptive)
Weight generation scheme         WeightScheme... Becke
Basis function cutoff            BFCut       ... 1.0000e-11
Integration weight cutoff        WCut        ... 1.0000e-14
Angular grids for H and He will be reduced by one unit
Partially contracted basis set               ... on
Rotationally invariant grid construction     ... off

Total number of grid points                  ...    18443
Total number of batches                      ...      291
Average number of points per batch           ...       63
Average number of grid points per atom       ...     2305
UseSFitting                                  ... on

Time for X-Grid setup             =    0.121 sec

--------------
SCF ITERATIONS
--------------
ITER       Energy         Delta-E        Max-DP      RMS-DP      [F,P]     Damp
               ***  Starting incremental Fock matrix formation  ***
  0    -79.6403985341   0.000000000000 0.03304286  0.00145071  0.1889217 0.7000
  1    -79.6904884602  -0.050089926144 0.02163673  0.00107387  0.1005731 0.7000
                               ***Turning on DIIS***
  2    -79.7114219872  -0.020933526958 0.03398113  0.00186331  0.0397538 0.0000
  3    -79.7397425220  -0.028320534797 0.01389784  0.00070935  0.0535485 0.0000
  4    -79.7484849195  -0.008742397577 0.00270483  0.00020703  0.0113411 0.0000
                      *** Initiating the SOSCF procedure ***
                           *** Shutting down DIIS ***
                      *** Re-Reading the Fockian *** 
                      *** Removing any level shift *** 
ITER      Energy       Delta-E        Grad      Rot      Max-DP    RMS-DP
  5    -79.74892017  -0.0004352540  0.000893  0.000893  0.001073  0.000077
               *** Restarting incremental Fock matrix formation ***
  6    -79.74894801  -0.0000278408  0.000332  0.000642  0.000884  0.000054
  7    -79.74894858  -0.0000005667  0.000248  0.000172  0.000226  0.000011
  8    -79.74894979  -0.0000012066  0.000034  0.000036  0.000035  0.000002
  9    -79.74894980  -0.0000000093  0.000010  0.000011  0.000009  0.000001
                 **** Energy Check signals convergence ****
              ***Rediagonalizing the Fockian in SOSCF/NRSCF***

               *****************************************************
               *                     SUCCESS                       *
               *           SCF CONVERGED AFTER  10 CYCLES          *
               *****************************************************

Old exchange energy                            =     -3.121821937 Eh
New exchange energy                            =     -3.121818162 Eh
Exchange energy change after final integration =      0.000003774 Eh
Total energy after final integration           =    -79.748946024 Eh
Final COS-X integration done in                =     0.283 sec

----------------
TOTAL SCF ENERGY
----------------

Total Energy       :          -79.74894602 Eh           -2170.07915 eV

Components:
Nuclear Repulsion  :           42.17170060 Eh            1147.55031 eV
Electronic Energy  :         -121.92064662 Eh           -3317.62946 eV
One Electron Energy:         -189.20339800 Eh           -5148.48620 eV
Two Electron Energy:           67.28275137 Eh            1830.85674 eV
Max COSX asymmetry :            0.00000065 Eh               0.00002 eV

Virial components:
Potential Energy   :         -159.01501194 Eh           -4327.01846 eV
Kinetic Energy     :           79.26606591 Eh            2156.93931 eV
Virial Ratio       :            2.00609189


DFT components:
N(Alpha)           :        8.999998084539 electrons
N(Beta)            :        8.999998084539 electrons
N(Total)           :       17.999996169078 electrons
E(X)               :       -9.303375703672 Eh       
E(C)               :       -0.561817289134 Eh       
E(XC)              :       -9.865192992806 Eh       
DFET-embed. en.    :        0.000000000000 Eh       

---------------
SCF CONVERGENCE
---------------

  Last Energy change         ...   -1.5073e-09  Tolerance :   1.0000e-08
  Last MAX-Density change    ...    6.6613e-16  Tolerance :   1.0000e-07
  Last RMS-Density change    ...    1.7528e-17  Tolerance :   5.0000e-09
  Last Orbital Gradient      ...    7.9071e-07  Tolerance :   1.0000e-05
  Last Orbital Rotation      ...    6.3071e-07  Tolerance :   1.0000e-05

             **** THE GBW FILE WAS UPDATED (C2N2_40.gbw) ****
             **** DENSITY C2N2_40.scfp WAS UPDATED ****
             **** ENERGY FILE WAS UPDATED (C2N2_40.en.tmp) ****
             **** THE GBW FILE WAS UPDATED (C2N2_40.gbw) ****
             **** DENSITY C2N2_40.scfp WAS UPDATED ****
----------------
ORBITAL ENERGIES
----------------

  NO   OCC          E(Eh)            E(eV) 
   0   2.0000     -10.207132      -277.7502 
   1   2.0000     -10.206907      -277.7441 
   2   2.0000      -0.773255       -21.0413 
   3   2.0000      -0.631215       -17.1762 
   4   2.0000      -0.448378       -12.2010 
   5   2.0000      -0.448368       -12.2007 
   6   2.0000      -0.373827       -10.1724 
   7   2.0000      -0.353317        -9.6142 
   8   2.0000      -0.353300        -9.6138 
   9   0.0000       0.052391         1.4256 
  10   0.0000       0.091865         2.4998 
  11   0.0000       0.112992         3.0747 
  12   0.0000       0.113001         3.0749 
  13   0.0000       0.148167         4.0318 
  14   0.0000       0.148182         4.0322 
  15   0.0000       0.198818         5.4101 
  16   0.0000       0.210075         5.7164 
  17   0.0000       0.240395         6.5415 
  18   0.0000       0.240411         6.5419 
  19   0.0000       0.264467         7.1965 
  20   0.0000       0.264475         7.1967 
  21   0.0000       0.406591        11.0639 
  22   0.0000       0.426534        11.6066 
  23   0.0000       0.442787        12.0488 
  24   0.0000       0.453350        12.3363 
  25   0.0000       0.453366        12.3367 
  26   0.0000       0.514396        13.9974 
  27   0.0000       0.514427        13.9983 
  28   0.0000       0.557742        15.1769 
  29   0.0000       0.595641        16.2082 
  30   0.0000       0.631319        17.1791 
  31   0.0000       0.631337        17.1796 
  32   0.0000       0.863178        23.4883 
  33   0.0000       0.863227        23.4896 
  34   0.0000       0.937581        25.5129 
  35   0.0000       1.026796        27.9405 
  36   0.0000       1.026802        27.9407 
  37   0.0000       1.051982        28.6259 
  38   0.0000       1.051988        28.6261 
  39   0.0000       1.111104        30.2347 
  40   0.0000       1.488939        40.5161 
  41   0.0000       1.488961        40.5167 
  42   0.0000       1.489692        40.5366 
  43   0.0000       1.541499        41.9463 
  44   0.0000       1.545162        42.0460 
  45   0.0000       1.552039        42.2331 
  46   0.0000       1.608401        43.7668 
  47   0.0000       1.608431        43.7676 
  48   0.0000       1.735749        47.2321 
  49   0.0000       1.751998        47.6743 
  50   0.0000       1.803983        49.0889 
  51   0.0000       1.804008        49.0895 
  52   0.0000       1.943132        52.8753 
  53   0.0000       1.943173        52.8764 
  54   0.0000       1.986023        54.0424 
  55   0.0000       2.151538        58.5463 
  56   0.0000       2.269795        61.7643 
  57   0.0000       2.304467        62.7077 
  58   0.0000       2.304489        62.7083 
  59   0.0000       2.337659        63.6109 
  60   0.0000       2.337730        63.6129 
  61   0.0000       2.388069        64.9827 
  62   0.0000       2.388124        64.9841 
  63   0.0000       2.543612        69.2152 
  64   0.0000       2.543689        69.2173 
  65   0.0000       2.573503        70.0286 
  66   0.0000       2.573539        70.0296 
  67   0.0000       2.697465        73.4018 
  68   0.0000       2.735630        74.4403 
  69   0.0000       2.735724        74.4428 
  70   0.0000       2.870245        78.1033 
  71   0.0000       2.976924        81.0062 
  72   0.0000       2.990870        81.3857 
  73   0.0000       2.990895        81.3864 
  74   0.0000       3.137814        85.3842 
  75   0.0000       3.154266        85.8319 
  76   0.0000       3.154306        85.8330 
  77   0.0000       3.269696        88.9729 
  78   0.0000       3.288636        89.4883 
  79   0.0000       3.315633        90.2230 
  80   0.0000       3.315659        90.2237 
  81   0.0000       3.441631        93.6515 
  82   0.0000       3.526958        95.9734 
  83   0.0000       3.527018        95.9750 
  84   0.0000       3.749717       102.0350 
  85   0.0000       3.749776       102.0366 
  86   0.0000       3.904475       106.2462 
  87   0.0000       3.909609       106.3859 
  88   0.0000       3.909623       106.3863 
  89   0.0000       4.261516       115.9618 
  90   0.0000       4.261554       115.9628 
  91   0.0000       4.317197       117.4769 
  92   0.0000       4.491516       122.2204 
  93   0.0000       4.491635       122.2236 
  94   0.0000       4.546298       123.7111 
  95   0.0000       4.765528       129.6766 
  96   0.0000      22.318502       607.3173 
  97   0.0000      22.385129       609.1303 

                    ********************************
                    * MULLIKEN POPULATION ANALYSIS *
                    ********************************

-----------------------
MULLIKEN ATOMIC CHARGES
-----------------------
   0 C :   -0.344871
   1 C :   -0.344593
   2 H :    0.114918
   3 H :    0.114916
   4 H :    0.114952
   5 H :    0.114834
   6 H :    0.114925
   7 H :    0.114919
Sum of atomic charges:   -0.0000000

--------------------------------
MULLIKEN REDUCED ORBITAL CHARGES
--------------------------------
  0 C s       :     3.229453  s :     3.229453
      pz      :     1.051385  p :     3.053045
      px      :     0.949662
      py      :     1.051999
      dz2     :     0.004598  d :     0.058921
      dxz     :     0.020550
      dyz     :     0.006308
      dx2y2   :     0.009132
      dxy     :     0.018332
      f0      :     0.000557  f :     0.003452
      f+1     :     0.000470
      f-1     :     0.000127
      f+2     :     0.000907
      f-2     :    -0.000027
      f+3     :     0.000601
      f-3     :     0.000818
  1 C s       :     3.229295  s :     3.229295
      pz      :     1.051295  p :     3.052924
      px      :     0.949685
      py      :     1.051944
      dz2     :     0.004721  d :     0.058922
      dxz     :     0.020514
      dyz     :     0.006175
      dx2y2   :     0.009144
      dxy     :     0.018369
      f0      :     0.000470  f :     0.003452
      f+1     :     0.000457
      f-1     :     0.000290
      f+2     :     0.000813
      f-2     :    -0.000016
      f+3     :     0.000603
      f-3     :     0.000836
  2 H s       :     0.864016  s :     0.864016
      pz      :     0.007058  p :     0.021066
      px      :     0.005311
      py      :     0.008698
  3 H s       :     0.864016  s :     0.864016
      pz      :     0.010499  p :     0.021068
      px      :     0.006053
      py      :     0.004516
  4 H s       :     0.863986  s :     0.863986
      pz      :     0.005608  p :     0.021063
      px      :     0.005466
      py      :     0.009988
  5 H s       :     0.864100  s :     0.864100
      pz      :     0.007802  p :     0.021067
      px      :     0.005335
      py      :     0.007929
  6 H s       :     0.864009  s :     0.864009
      pz      :     0.005101  p :     0.021065
      px      :     0.005435
      py      :     0.010530
  7 H s       :     0.864016  s :     0.864016
      pz      :     0.010261  p :     0.021065
      px      :     0.006060
      py      :     0.004744


                     *******************************
                     * LOEWDIN POPULATION ANALYSIS *
                     *******************************

----------------------
LOEWDIN ATOMIC CHARGES
----------------------
   0 C :   -0.348721
   1 C :   -0.348693
   2 H :    0.116234
   3 H :    0.116239
   4 H :    0.116247
   5 H :    0.116241
   6 H :    0.116219
   7 H :    0.116233

-------------------------------
LOEWDIN REDUCED ORBITAL CHARGES
-------------------------------
  0 C s       :     2.842363  s :     2.842363
      pz      :     1.078284  p :     3.218716
      px      :     1.062062
      py      :     1.078370
      dz2     :     0.029083  d :     0.262999
      dxz     :     0.077998
      dyz     :     0.033141
      dx2y2   :     0.053938
      dxy     :     0.068839
      f0      :     0.003488  f :     0.024643
      f+1     :     0.003967
      f-1     :     0.000813
      f+2     :     0.004652
      f-2     :     0.002077
      f+3     :     0.003773
      f-3     :     0.005873
  1 C s       :     2.842348  s :     2.842348
      pz      :     1.078264  p :     3.218700
      px      :     1.062069
      py      :     1.078366
      dz2     :     0.030103  d :     0.263003
      dxz     :     0.077719
      dyz     :     0.032059
      dx2y2   :     0.054012
      dxy     :     0.069110
      f0      :     0.003063  f :     0.024643
      f+1     :     0.003848
      f-1     :     0.001531
      f+2     :     0.004313
      f-2     :     0.002222
      f+3     :     0.003746
      f-3     :     0.005920
  2 H s       :     0.821927  s :     0.821927
      pz      :     0.021018  p :     0.061839
      px      :     0.014738
      py      :     0.026083
  3 H s       :     0.821922  s :     0.821922
      pz      :     0.031471  p :     0.061839
      px      :     0.016555
      py      :     0.013813
  4 H s       :     0.821921  s :     0.821921
      pz      :     0.017001  p :     0.061832
      px      :     0.015095
      py      :     0.029736
  5 H s       :     0.821930  s :     0.821930
      pz      :     0.023162  p :     0.061829
      px      :     0.014796
      py      :     0.023871
  6 H s       :     0.821931  s :     0.821931
      pz      :     0.015535  p :     0.061850
      px      :     0.015021
      py      :     0.031294
  7 H s       :     0.821925  s :     0.821925
      pz      :     0.030795  p :     0.061842
      px      :     0.016576
      py      :     0.014471


                      *****************************
                      * MAYER POPULATION ANALYSIS *
                      *****************************

  NA   - Mulliken gross atomic population
  ZA   - Total nuclear charge
  QA   - Mulliken gross atomic charge
  VA   - Mayer's total valence
  BVA  - Mayer's bonded valence
  FA   - Mayer's free valence

  ATOM       NA         ZA         QA         VA         BVA        FA
  0 C      6.3449     6.0000    -0.3449     3.9147     3.9147     0.0000
  1 C      6.3446     6.0000    -0.3446     3.9146     3.9146    -0.0000
  2 H      0.8851     1.0000     0.1149     0.9689     0.9689     0.0000
  3 H      0.8851     1.0000     0.1149     0.9689     0.9689    -0.0000
  4 H      0.8850     1.0000     0.1150     0.9689     0.9689     0.0000
  5 H      0.8852     1.0000     0.1148     0.9689     0.9689     0.0000
  6 H      0.8851     1.0000     0.1149     0.9689     0.9689    -0.0000
  7 H      0.8851     1.0000     0.1149     0.9689     0.9689    -0.0000

  Mayer bond orders larger than 0.100000
B(  0-C ,  1-C ) :   1.0015 B(  0-C ,  2-H ) :   0.9739 B(  0-C ,  3-H ) :   0.9739 
B(  0-C ,  4-H ) :   0.9739 B(  1-C ,  5-H ) :   0.9739 B(  1-C ,  6-H ) :   0.9739 
B(  1-C ,  7-H ) :   0.9739 

-------
TIMINGS
-------

Total SCF time: 0 days 0 hours 0 min 3 sec 

Total time                  ....       3.224 sec
Sum of individual times     ....       3.050 sec  ( 94.6%)

Fock matrix formation       ....       2.641 sec  ( 81.9%)
  Split-RI-J                ....       0.229 sec  (  8.7% of F)
  Chain of spheres X        ....       1.561 sec  ( 59.1% of F)
  XC integration            ....       0.607 sec  ( 23.0% of F)
    Basis function eval.    ....       0.142 sec  ( 23.4% of XC)
    Density eval.           ....       0.086 sec  ( 14.2% of XC)
    XC-Functional eval.     ....       0.031 sec  (  5.1% of XC)
    XC-Potential eval.      ....       0.140 sec  ( 23.1% of XC)
Diagonalization             ....       0.032 sec  (  1.0%)
Density matrix formation    ....       0.002 sec  (  0.1%)
Population analysis         ....       0.017 sec  (  0.5%)
Initial guess               ....       0.035 sec  (  1.1%)
Orbital Transformation      ....       0.000 sec  (  0.0%)
Orbital Orthonormalization  ....       0.000 sec  (  0.0%)
DIIS solution               ....       0.020 sec  (  0.6%)
SOSCF solution              ....       0.022 sec  (  0.7%)
Grid generation             ....       0.281 sec  (  8.7%)

Maximum memory used throughout the entire SCF-calculation: 60.4 MB

-------------------------   --------------------
FINAL SINGLE POINT ENERGY       -79.748946024037
-------------------------   --------------------



           ************************************************************
           *        Program running with 5 parallel MPI-processes     *
           *              working on a common directory               *
           ************************************************************
------------------------------------------------------------------------------
                         ORCA SCF GRADIENT CALCULATION
------------------------------------------------------------------------------

 ... reading COSX grid (gridx3)
Gradient of the Kohn-Sham DFT energy:
Kohn-Sham wavefunction type      ... RKS
Hartree-Fock exchange scaling    ...    0.250
Number of operators              ...    1
Number of atoms                  ...    8
Basis set dimensions             ...   98
Integral neglect threshold       ... 2.5e-11
Integral primitive cutoff        ... 2.5e-12
SHARK Integral package           ... ON

Nuc. rep. gradient       (SHARK) ... done (  0.0 sec)
HCore & Overlap gradient (SHARK) ... done (  0.0 sec)
RI-J gradient            (SHARK) ... done (  0.1 sec)
COSX-gradient                    ... done (  0.4 sec)
Exchange-correlation gradient    ... done

------------------
CARTESIAN GRADIENT
------------------

   1   C   :   -0.009822613   -0.000093914    0.000735884
   2   C   :    0.009823117    0.000157713   -0.000699766
   3   H   :    0.002076716   -0.000434235    0.001397575
   4   H   :    0.001877889   -0.001095182   -0.001312954
   5   H   :    0.001903826    0.001611159   -0.000564243
   6   H   :   -0.002067581   -0.000313327   -0.001457042
   7   H   :   -0.001937778    0.001470231    0.000761217
   8   H   :   -0.001881678   -0.001246361    0.001160151

Difference to translation invariance:
           :   -0.0000281017    0.0000560849    0.0000208224

Difference to rotation invariance:
           :    0.0000503939   -0.0003158386    0.0002074196

Norm of the cartesian gradient     ...    0.0152616313
RMS gradient                       ...    0.0031152674
MAX gradient                       ...    0.0098231167

-------
TIMINGS
-------

Total SCF gradient time            ...        0.841 sec

One electron gradient       ....       0.013 sec  (  1.5%)
RI-J Coulomb gradient       ....       0.070 sec  (  8.3%)
COSX gradient               ....       0.396 sec  ( 47.1%)
XC gradient                 ....       0.218 sec  ( 25.9%)

Maximum memory used throughout the entire SCFGRAD-calculation: 35.2 MB

                            ***************************************
                            *     ORCA property calculations      *
                            ***************************************

                                    ---------------------
                                    Active property flags
                                    ---------------------
   (+) Dipole Moment
   (+) Chemical Shifts
   (+) Nuclear properties (Hyperfine,Quadrupole)


------------------------------------------------------------------------------
                       ORCA ELECTRIC PROPERTIES CALCULATION
------------------------------------------------------------------------------

Dipole Moment Calculation                       ... on
Quadrupole Moment Calculation                   ... off
Polarizability Calculation                      ... off
GBWName                                         ... C2N2_40.gbw
Electron density                                ... C2N2_40.scfp
The origin for moment calculation is the CENTER OF MASS  = ( 3.150372,  0.414129 -0.167437)

-------------
DIPOLE MOMENT
-------------
                                X             Y             Z
Electronic contribution:      0.00004       0.00018      -0.00001
Nuclear contribution   :     -0.00006      -0.00012      -0.00002
                        -----------------------------------------
Total Dipole Moment    :     -0.00002       0.00005      -0.00003
                        -----------------------------------------
Magnitude (a.u.)       :      0.00006
Magnitude (Debye)      :      0.00016



--------------------
Rotational spectrum 
--------------------
 
Rotational constants in cm-1:     2.659369     0.665333     0.665327 
Rotational constants in MHz : 79725.870332 19946.174860 19945.994951 

 Dipole components along the rotational axes: 
x,y,z [a.u.] :     0.000020    -0.000033    -0.000052 
x,y,z [Debye]:     0.000051    -0.000084    -0.000132 

 


           ************************************************************
           *        Program running with 5 parallel MPI-processes     *
           *              working on a common directory               *
           ************************************************************
------------------------------------------------------------------------------
                                ORCA EPR/NMR CALCULATION
------------------------------------------------------------------------------

GBWName                      ... C2N2_40.gbw
Electron density             ... C2N2_40.scfp
Spin density                 ... C2N2_40.scfr
Treatment of gauge           ... GIAO (approximations 1/2el = 0,0)
Details of the CP(SCF) procedure:
       Solver   = POPLE   
       MaxIter  =    64   
       Tolerance=    1.000e-04
       COSX Grid=     1   
       Op-0     =   0-  8 =>   9- 97
Multiplicity                 ... 1
g-tensor                     ... 0
NMR chemical shifts          ... 1
NMR spin-spin couplings      ... 0
NMR spectrum                 ... 0
Number of nuclei for epr/nmr ... 8
   Nucleus:   0C 
       Hyperfine : Isotope=   13 I=   0.500 P= 134.190
       Quadrupole: Isotope=   13 I=   0.500 Q=   0.000
       Spin-Orbit: Zeff=   3.600
       Nuclear Spin-Spin: Gn=   0.000
       EPRNMR Input: 
       rho(0)=N f(grad)=N a(iso)=N a(dip)=N a(orb)=N sigma(nmr)=Y spin-spin(nmr)=all-N,DSO-N,PSO-N,FC-N,SD-N
   Nucleus:   1C 
       Hyperfine : Isotope=   13 I=   0.500 P= 134.190
       Quadrupole: Isotope=   13 I=   0.500 Q=   0.000
       Spin-Orbit: Zeff=   3.600
       Nuclear Spin-Spin: Gn=   0.000
       EPRNMR Input: 
       rho(0)=N f(grad)=N a(iso)=N a(dip)=N a(orb)=N sigma(nmr)=Y spin-spin(nmr)=all-N,DSO-N,PSO-N,FC-N,SD-N
   Nucleus:   2H 
       Hyperfine : Isotope=    1 I=   0.500 P= 533.551
       Quadrupole: Isotope=    2 I=   1.000 Q=   0.003
       Spin-Orbit: Zeff=   1.000
       Nuclear Spin-Spin: Gn=   0.000
       EPRNMR Input: 
       rho(0)=N f(grad)=N a(iso)=N a(dip)=N a(orb)=N sigma(nmr)=Y spin-spin(nmr)=all-N,DSO-N,PSO-N,FC-N,SD-N
   Nucleus:   3H 
       Hyperfine : Isotope=    1 I=   0.500 P= 533.551
       Quadrupole: Isotope=    2 I=   1.000 Q=   0.003
       Spin-Orbit: Zeff=   1.000
       Nuclear Spin-Spin: Gn=   0.000
       EPRNMR Input: 
       rho(0)=N f(grad)=N a(iso)=N a(dip)=N a(orb)=N sigma(nmr)=Y spin-spin(nmr)=all-N,DSO-N,PSO-N,FC-N,SD-N
   Nucleus:   4H 
       Hyperfine : Isotope=    1 I=   0.500 P= 533.551
       Quadrupole: Isotope=    2 I=   1.000 Q=   0.003
       Spin-Orbit: Zeff=   1.000
       Nuclear Spin-Spin: Gn=   0.000
       EPRNMR Input: 
       rho(0)=N f(grad)=N a(iso)=N a(dip)=N a(orb)=N sigma(nmr)=Y spin-spin(nmr)=all-N,DSO-N,PSO-N,FC-N,SD-N
   Nucleus:   5H 
       Hyperfine : Isotope=    1 I=   0.500 P= 533.551
       Quadrupole: Isotope=    2 I=   1.000 Q=   0.003
       Spin-Orbit: Zeff=   1.000
       Nuclear Spin-Spin: Gn=   0.000
       EPRNMR Input: 
       rho(0)=N f(grad)=N a(iso)=N a(dip)=N a(orb)=N sigma(nmr)=Y spin-spin(nmr)=all-N,DSO-N,PSO-N,FC-N,SD-N
   Nucleus:   6H 
       Hyperfine : Isotope=    1 I=   0.500 P= 533.551
       Quadrupole: Isotope=    2 I=   1.000 Q=   0.003
       Spin-Orbit: Zeff=   1.000
       Nuclear Spin-Spin: Gn=   0.000
       EPRNMR Input: 
       rho(0)=N f(grad)=N a(iso)=N a(dip)=N a(orb)=N sigma(nmr)=Y spin-spin(nmr)=all-N,DSO-N,PSO-N,FC-N,SD-N
   Nucleus:   7H 
       Hyperfine : Isotope=    1 I=   0.500 P= 533.551
       Quadrupole: Isotope=    2 I=   1.000 Q=   0.003
       Spin-Orbit: Zeff=   1.000
       Nuclear Spin-Spin: Gn=   0.000
       EPRNMR Input: 
       rho(0)=N f(grad)=N a(iso)=N a(dip)=N a(orb)=N sigma(nmr)=Y spin-spin(nmr)=all-N,DSO-N,PSO-N,FC-N,SD-N
Forming RHS of the CP-SCF equations         ... 
Calculating right hand sides for GIAO treatment        ... 
  Entering RightHandSide GIAO. ScalHFX=    0.2500 NeedHFX=1
     -> 1-electron GIAO integrals will be done analytically
     -> RIJCOSX used in SCF. Same chosen for GIAO calculation.
     Making grid for GIAO integrations   ...

GRID GIAO
---------

General Integration Accuracy     IntAcc      ... 4.388
Radial Grid Type                 RadialGrid  ... OptM3 with GC (2021)
Angular Grid (max. ang.)         AngularGrid ... 4 (Lebedev-302)
Angular grid pruning method      GridPruning ... 4 (adaptive)
Weight generation scheme         WeightScheme... Becke
Basis function cutoff            BFCut       ... 1.0000e-11
Integration weight cutoff        WCut        ... 1.0000e-14
Angular grids for H and He will be reduced by one unit
Partially contracted basis set               ... off
Rotationally invariant grid construction     ... off

Total number of grid points                  ...    31669
Total number of batches                      ...      498
Average number of points per batch           ...       63
Average number of grid points per atom       ...     3959

  One-electron GIAO integrals (SHARK)     ... done
  Calculating G(B)[P]                     ... (RI-J: SHARK-ok) (COSX-ok) (add-J+K:ok) => dG/dB done
  DFT XC-terms                            ... done
  Extracting occupied and virtual blocks  ... 
  Operator  0  NO=   9 NV=  89 
  Transforming and RHS contribution       ... done
  Adding eps_i * S(B)_ai terms            ... done
  Projecting overlap derivatives          ... done
  Building G[dS/dB_ij] (COSX)             ... done
  Transforming to MO basis                ... done
  Summing G[dS/dB_ij] into RHS contribs.  ... done

  GIAO profiling information: 
    Total GIAO time               ...       0.8 sec
       GIAO 1-electron integrals  ...       0.0 sec (  0.5%)
       GIAO G(dS/dB) terms        ...       0.1 sec ( 11.7%)
       GIAO RI-J                  ...       0.1 sec (  6.1%)
       GIAO COSX                  ...       0.2 sec ( 23.0%)
       GIAO XC-terms              ...       0.4 sec ( 46.1%)
       Right hand side assembly   ...       0.0 sec (  0.1%)

  GIAO right hand side done


------------------------------------------------------------------------------
                           ORCA CP-SCF CALCULATION
------------------------------------------------------------------------------

Input orbitals are from        ... C2N2_40.gbw
Input Perturbation             ... C2N2_40.pin.tmp
Wavefunction output            ... C2N2_40.pout.tmp
Perturbation mode              ... Imaginary perturbation
Solver                         ... POPLE
Max. number of iterations      ... 64
Convergence tolerance          ... 1.000e-04
Integral handling              ... Direct
DFT GridXC                     ... 1
COSX GridX                     ... 1
COSX IntAccX                   ... 3.067
COSX Algorithm                 ... Auto
Number of perturbations        ... 3
Number of operators            ... 1
Orbital ranges used for CP-SCF:
 Operator 0:  Orbitals   0...  8  to   9... 97
Variables per perturbation     ... 801
DFT calculation                         ... on
XC functional terms                     ... off
Hybrid DFT                              ... on
   Exchange mixing (SCF)                ...  0.250
   Exchange mixing (CP-SCF)             ...  0.250
   GGA exch. scaling(SCF)               ...  0.750
   GGA exch. scaling (CP-SCF)           ...  0.750
   GGA corr. scaling (SCF)              ...  1.000
   GGA corr. scaling (CP-SCF)           ...  1.000

CP-SCF GRID
-----------

General Integration Accuracy     IntAcc      ... 3.467
Radial Grid Type                 RadialGrid  ... OptM3 with GC (2021)
Angular Grid (max. ang.)         AngularGrid ... 1 (Lebedev-50)
Angular grid pruning method      GridPruning ... 4 (adaptive)
Weight generation scheme         WeightScheme... Becke
Basis function cutoff            BFCut       ... 1.0000e-11
Integration weight cutoff        WCut        ... 1.0000e-14
Angular grids for H and He will be reduced by one unit
Partially contracted basis set               ... off
Rotationally invariant grid construction     ... off

Total number of grid points                  ...     4378
Total number of batches                      ...       72
Average number of points per batch           ...       60
Average number of grid points per atom       ...      547

CP-SCF GRIDX
------------

General Integration Accuracy     IntAcc      ... 3.067
Radial Grid Type                 RadialGrid  ... OptM3 with GC (2021)
Angular Grid (max. ang.)         AngularGrid ... 1 (Lebedev-50)
Angular grid pruning method      GridPruning ... 4 (adaptive)
Weight generation scheme         WeightScheme... Becke
Basis function cutoff            BFCut       ... 1.0000e-11
Integration weight cutoff        WCut        ... 1.0000e-14
Angular grids for H and He will be reduced by one unit
Partially contracted basis set               ... on
Rotationally invariant grid construction     ... off

Total number of grid points                  ...     2067
Total number of batches                      ...       37
Average number of points per batch           ...       55
Average number of grid points per atom       ...      258

Memory available               ... 1014.3 MB
Memory needed per perturbation ...   0.4 MB
Perturbations treated per batch... 3
Number of batches              ... 1
     CP-SCF ITERATION   0:   2.0308e-01 (   0.1 sec   0/  3 done)
     CP-SCF ITERATION   1:   2.1725e-03 (   0.1 sec   0/  3 done)
     CP-SCF ITERATION   2:   8.5375e-05 (   0.1 sec   3/  3 done)
                    *** THE CP-SCF HAS CONVERGED ***

Forming final perturbed densities           ... done
Transforming perturbed density to AO basis  ... done

Magnetic field perturbation calculated in  1.120 sec

---------------
CHEMICAL SHIFTS
---------------

Note: using conversion factor for au to ppm alpha^2/2 =   26.625677252 
GIAO: Analytic para- and diamagnetic shielding integrals (SHARK)       ...done
 --------------
 Nucleus   0C :
 --------------

Diamagnetic contribution to the shielding tensor (ppm) : 
           253.761         -0.403        -0.950
             0.098        243.123        -0.072
            -0.954          0.098       243.207

Paramagnetic contribution to the shielding tensor (ppm): 
           -64.160          0.369        -0.242
             0.160        -68.488         1.873
            -0.211         -1.946       -68.467

Total shielding tensor (ppm): 
           189.601         -0.034        -1.192
             0.257        174.635         1.802
            -1.165         -1.848       174.740


 Diagonalized sT*s matrix:
 
 sDSO           243.127          243.122          253.842  iso=     246.697
 sPSO           -68.502          -68.466          -64.147  iso=     -67.038
        ---------------  ---------------  ---------------
 Total          174.625          174.657          189.695  iso=     179.659

 --------------
 Nucleus   1C :
 --------------

Diamagnetic contribution to the shielding tensor (ppm) : 
           253.716          0.620        -1.373
             0.179        235.139         0.238
            -1.578         -0.286       235.252

Paramagnetic contribution to the shielding tensor (ppm): 
           -64.114         -0.362         0.209
            -0.201        -60.502        -2.071
             0.390          2.094       -60.532

Total shielding tensor (ppm): 
           189.601          0.258        -1.165
            -0.023        174.636        -1.833
            -1.188          1.807       174.721


 Diagonalized sT*s matrix:
 
 sDSO           235.140          235.129          253.838  iso=     241.369
 sPSO           -60.513          -60.492          -64.143  iso=     -61.716
        ---------------  ---------------  ---------------
 Total          174.627          174.637          189.695  iso=     179.653

 --------------
 Nucleus   2H :
 --------------

Diamagnetic contribution to the shielding tensor (ppm) : 
            29.162          3.749        -3.331
             2.097         34.417        -5.680
            -2.249         -5.786        30.122

Paramagnetic contribution to the shielding tensor (ppm): 
             2.337         -0.311         0.670
             0.314         -3.277         1.980
             0.327          1.946        -0.313

Total shielding tensor (ppm): 
            31.499          3.438        -2.660
             2.410         31.140        -3.700
            -1.922         -3.840        29.809


 Diagonalized sT*s matrix:
 
 sDSO            26.315           28.212           39.174  iso=      31.234
 sPSO             0.327            0.725           -2.305  iso=      -0.418
        ---------------  ---------------  ---------------
 Total           26.642           28.938           36.869  iso=      30.816

 --------------
 Nucleus   3H :
 --------------

Diamagnetic contribution to the shielding tensor (ppm) : 
            30.264          0.510         6.219
             0.808         26.144         0.675
             3.967          0.746        37.163

Paramagnetic contribution to the shielding tensor (ppm): 
             2.240         -0.062        -1.644
            -0.481          0.687         0.419
            -0.659          0.266        -4.051

Total shielding tensor (ppm): 
            32.504          0.447         4.575
             0.327         26.831         1.094
             3.308          1.012        33.112


 Diagonalized sT*s matrix:
 
 sDSO            26.276           28.087           39.208  iso=      31.190
 sPSO             0.365            0.852           -2.340  iso=      -0.375
        ---------------  ---------------  ---------------
 Total           26.641           28.939           36.867  iso=      30.816

 --------------
 Nucleus   4H :
 --------------

Diamagnetic contribution to the shielding tensor (ppm) : 
            29.030         -5.120        -2.461
            -2.960         35.526         4.951
            -1.158          5.166        28.777

Paramagnetic contribution to the shielding tensor (ppm): 
             2.624          1.264         0.167
             0.267         -2.670        -2.254
            -0.608         -2.439        -0.843

Total shielding tensor (ppm): 
            31.654         -3.856        -2.295
            -2.693         32.855         2.697
            -1.766          2.727        27.934


 Diagonalized sT*s matrix:
 
 sDSO            26.327           27.733           39.273  iso=      31.111
 sPSO             0.314            1.204           -2.408  iso=      -0.297
        ---------------  ---------------  ---------------
 Total           26.641           28.937           36.865  iso=      30.814

 --------------
 Nucleus   5H :
 --------------

Diamagnetic contribution to the shielding tensor (ppm) : 
            29.071         -3.381        -3.950
            -4.954         27.705         5.924
            -4.998          5.703        28.217

Paramagnetic contribution to the shielding tensor (ppm): 
             2.467          0.259         0.906
             2.775          2.566        -2.193
             2.801         -1.826         2.420

Total shielding tensor (ppm): 
            31.538         -3.121        -3.044
            -2.179         30.272         3.732
            -2.196          3.878        30.637


 Diagonalized sT*s matrix:
 
 sDSO            22.153           24.864           37.976  iso=      28.331
 sPSO             4.489            4.074           -1.109  iso=       2.485
        ---------------  ---------------  ---------------
 Total           26.642           28.938           36.867  iso=      30.816

 --------------
 Nucleus   6H :
 --------------

Diamagnetic contribution to the shielding tensor (ppm) : 
            28.836          5.393        -2.132
             6.619         32.453        -3.343
            -2.733         -3.346        23.342

Paramagnetic contribution to the shielding tensor (ppm): 
             2.773         -1.322         0.285
            -3.761          0.979         1.230
             1.285          1.206         4.067

Total shielding tensor (ppm): 
            31.610          4.071        -1.846
             2.858         33.433        -2.112
            -1.448         -2.140        27.408


 Diagonalized sT*s matrix:
 
 sDSO            22.182           24.372           38.076  iso=      28.210
 sPSO             4.461            4.567           -1.209  iso=       2.606
        ---------------  ---------------  ---------------
 Total           26.644           28.939           36.868  iso=      30.817

 --------------
 Nucleus   7H :
 --------------

Diamagnetic contribution to the shielding tensor (ppm) : 
            30.484         -1.173         5.816
            -1.606         22.834        -2.425
             7.267         -2.582        31.451

Paramagnetic contribution to the shielding tensor (ppm): 
             2.029          0.268        -1.305
             0.956          4.289         0.708
            -4.005          0.940         1.364

Total shielding tensor (ppm): 
            32.513         -0.905         4.510
            -0.650         27.122        -1.717
             3.262         -1.643        32.815


 Diagonalized sT*s matrix:
 
 sDSO            22.127           24.606           38.036  iso=      28.256
 sPSO             4.515            4.334           -1.168  iso=       2.561
        ---------------  ---------------  ---------------
 Total           26.642           28.940           36.868  iso=      30.817



--------------------------------
CHEMICAL SHIELDING SUMMARY (ppm)
--------------------------------


  Nucleus  Element    Isotropic     Anisotropy
  -------  -------  ------------   ------------
      0       C          179.659         15.054 
      1       C          179.653         15.063 
      2       H           30.816          9.080 
      3       H           30.816          9.078 
      4       H           30.814          9.076 
      5       H           30.816          9.077 
      6       H           30.817          9.076 
      7       H           30.817          9.076 



Maximum memory used throughout the entire EPRNMR-calculation: 13.0 MB

----------------------------------------------------------------------------
                           ORCA NUMERICAL FREQUENCIES
                              (5-process run)
----------------------------------------------------------------------------

Number of atoms                ... 8
Central differences            ... used
Number of displacements        ... 48
Numerical increment            ... 5.000e-03 bohr
IR-spectrum generation         ... on
Raman-spectrum generation      ... off
Surface Crossing Hessian       ... off

The output will be reduced. Please look at the following files:
SCF program output             ... >C2N2_40.lastscf
Integral program output        ... >C2N2_40.lastint
Gradient program output        ... >C2N2_40.lastgrad
Dipole moment program output   ... >C2N2_40.lastmom
AutoCI program output          ... >C2N2_40.lastautoci

	<< Calculating on displaced geometry   4 (of  48) >>
	<< Calculating on displaced geometry   5 (of  48) >>
	<< Calculating on displaced geometry   2 (of  48) >>
	<< Calculating on displaced geometry   3 (of  48) >>
	<< Calculating on displaced geometry   1 (of  48) >>
	<< Calculating on displaced geometry   6 (of  48) >>
	<< Calculating on displaced geometry   7 (of  48) >>
	<< Calculating on displaced geometry   8 (of  48) >>
	<< Calculating on displaced geometry   9 (of  48) >>
	<< Calculating on displaced geometry  10 (of  48) >>
	<< Calculating on displaced geometry  11 (of  48) >>
	<< Calculating on displaced geometry  12 (of  48) >>
	<< Calculating on displaced geometry  13 (of  48) >>
	<< Calculating on displaced geometry  14 (of  48) >>
	<< Calculating on displaced geometry  15 (of  48) >>
	<< Calculating on displaced geometry  16 (of  48) >>
	<< Calculating on displaced geometry  17 (of  48) >>
	<< Calculating on displaced geometry  18 (of  48) >>
	<< Calculating on displaced geometry  19 (of  48) >>
	<< Calculating on displaced geometry  20 (of  48) >>
	<< Calculating on displaced geometry  21 (of  48) >>
	<< Calculating on displaced geometry  22 (of  48) >>
	<< Calculating on displaced geometry  23 (of  48) >>
	<< Calculating on displaced geometry  24 (of  48) >>
	<< Calculating on displaced geometry  25 (of  48) >>
	<< Calculating on displaced geometry  26 (of  48) >>
	<< Calculating on displaced geometry  27 (of  48) >>
	<< Calculating on displaced geometry  29 (of  48) >>
	<< Calculating on displaced geometry  28 (of  48) >>
	<< Calculating on displaced geometry  30 (of  48) >>
	<< Calculating on displaced geometry  31 (of  48) >>
	<< Calculating on displaced geometry  32 (of  48) >>
	<< Calculating on displaced geometry  33 (of  48) >>
	<< Calculating on displaced geometry  34 (of  48) >>
	<< Calculating on displaced geometry  35 (of  48) >>
	<< Calculating on displaced geometry  36 (of  48) >>
	<< Calculating on displaced geometry  37 (of  48) >>
	<< Calculating on displaced geometry  38 (of  48) >>
	<< Calculating on displaced geometry  40 (of  48) >>
	<< Calculating on displaced geometry  39 (of  48) >>
	<< Calculating on displaced geometry  41 (of  48) >>
	<< Calculating on displaced geometry  42 (of  48) >>
	<< Calculating on displaced geometry  43 (of  48) >>
	<< Calculating on displaced geometry  44 (of  48) >>
	<< Calculating on displaced geometry  45 (of  48) >>
	<< Calculating on displaced geometry  46 (of  48) >>
	<< Calculating on displaced geometry  47 (of  48) >>
	<< Calculating on displaced geometry  48 (of  48) >>

-----------------------
VIBRATIONAL FREQUENCIES
-----------------------

Scaling factor for frequencies =  1.000000000 (already applied!)

   0:         0.00 cm**-1
   1:         0.00 cm**-1
   2:         0.00 cm**-1
   3:         0.00 cm**-1
   4:         0.00 cm**-1
   5:         0.00 cm**-1
   6:       255.04 cm**-1
   7:       844.76 cm**-1
   8:       845.34 cm**-1
   9:       996.13 cm**-1
  10:      1209.45 cm**-1
  11:      1209.77 cm**-1
  12:      1385.35 cm**-1
  13:      1401.29 cm**-1
  14:      1492.09 cm**-1
  15:      1492.79 cm**-1
  16:      1496.72 cm**-1
  17:      1497.22 cm**-1
  18:      3045.63 cm**-1
  19:      3046.02 cm**-1
  20:      3112.25 cm**-1
  21:      3113.29 cm**-1
  22:      3135.97 cm**-1
  23:      3136.82 cm**-1


------------
NORMAL MODES
------------

These modes are the cartesian displacements weighted by the diagonal matrix
M(i,i)=1/sqrt(m[i]) where m[i] is the mass of the displaced atom
Thus, these vectors are normalized but *not* orthogonal

                  0          1          2          3          4          5    
      0       0.000000   0.000000   0.000000   0.000000   0.000000   0.000000
      1       0.000000   0.000000   0.000000   0.000000   0.000000   0.000000
      2       0.000000   0.000000   0.000000   0.000000   0.000000   0.000000
      3       0.000000   0.000000   0.000000   0.000000   0.000000   0.000000
      4       0.000000   0.000000   0.000000   0.000000   0.000000   0.000000
      5       0.000000   0.000000   0.000000   0.000000   0.000000   0.000000
      6       0.000000   0.000000   0.000000   0.000000   0.000000   0.000000
      7       0.000000   0.000000   0.000000   0.000000   0.000000   0.000000
      8       0.000000   0.000000   0.000000   0.000000   0.000000   0.000000
      9       0.000000   0.000000   0.000000   0.000000   0.000000   0.000000
     10       0.000000   0.000000   0.000000   0.000000   0.000000   0.000000
     11       0.000000   0.000000   0.000000   0.000000   0.000000   0.000000
     12       0.000000   0.000000   0.000000   0.000000   0.000000   0.000000
     13       0.000000   0.000000   0.000000   0.000000   0.000000   0.000000
     14       0.000000   0.000000   0.000000   0.000000   0.000000   0.000000
     15       0.000000   0.000000   0.000000   0.000000   0.000000   0.000000
     16       0.000000   0.000000   0.000000   0.000000   0.000000   0.000000
     17       0.000000   0.000000   0.000000   0.000000   0.000000   0.000000
     18       0.000000   0.000000   0.000000   0.000000   0.000000   0.000000
     19       0.000000   0.000000   0.000000   0.000000   0.000000   0.000000
     20       0.000000   0.000000   0.000000   0.000000   0.000000   0.000000
     21       0.000000   0.000000   0.000000   0.000000   0.000000   0.000000
     22       0.000000   0.000000   0.000000   0.000000   0.000000   0.000000
     23       0.000000   0.000000   0.000000   0.000000   0.000000   0.000000
                  6          7          8          9         10         11    
      0       0.008270   0.002242  -0.003125   0.339448  -0.001393   0.010923
      1      -0.000162  -0.040541  -0.025187   0.002552  -0.139265  -0.032020
      2      -0.000625   0.024886  -0.040512  -0.026525  -0.031997   0.138722
      3      -0.008223   0.001422  -0.003366  -0.339323   0.001496  -0.011053
      4      -0.000156  -0.046156  -0.011829  -0.002728   0.137860   0.037064
      5       0.000697   0.011924  -0.045979   0.026466   0.037138  -0.137569
      6      -0.008735  -0.504160   0.103971   0.356807  -0.332779  -0.368549
      7      -0.246306   0.143010   0.108130   0.025860   0.152707  -0.081819
      8      -0.324405  -0.008969   0.187388   0.005914   0.163029  -0.130807
      9       0.008991   0.164462  -0.467863   0.353881  -0.140173   0.469530
     10       0.406348   0.207130   0.081574  -0.038049   0.250547   0.083253
     11      -0.052527  -0.084497   0.170279  -0.024321  -0.012759  -0.100094
     12       0.047840   0.316899   0.401467   0.351333   0.476251  -0.137738
     13      -0.157290   0.160281   0.045873   0.021249   0.068590   0.083212
     14       0.372755  -0.139772   0.151613  -0.066296  -0.065497  -0.237973
     15       0.009855   0.224184   0.462106  -0.356641  -0.445099   0.218896
     16      -0.280031   0.188977   0.036433   0.024089  -0.123979  -0.150005
     17       0.295929  -0.123369   0.126455  -0.003637   0.089200   0.166404
     18      -0.047333  -0.512865  -0.006061  -0.351322   0.393208   0.306509
     19      -0.115984   0.133854   0.075984   0.011497  -0.075508   0.032094
     20      -0.388772  -0.020280   0.212416   0.068188  -0.157315   0.202993
     21      -0.011176   0.267819  -0.416272  -0.355540   0.047363  -0.487091
     22       0.397053   0.199799   0.093073  -0.042546  -0.255619  -0.026838
     23       0.096159  -0.061729   0.182441   0.020855  -0.077921   0.085743
                 12         13         14         15         16         17    
      0       0.094744  -0.095776   0.000861   0.001682   0.001115  -0.003382
      1       0.000514  -0.000820   0.027346  -0.010565  -0.043129  -0.010764
      2      -0.007373   0.007457   0.011320   0.024634   0.012495  -0.044063
      3       0.091758   0.098817   0.001940  -0.000088   0.002772  -0.002432
      4       0.000950   0.001067  -0.005055  -0.025139  -0.036462  -0.029643
      5      -0.007265  -0.007694   0.024693  -0.007999   0.030311  -0.035039
      6      -0.385086   0.370565  -0.279111   0.119914   0.194623  -0.133171
      7       0.127568  -0.121044  -0.118175  -0.288584   0.076953   0.299308
      8      -0.067093   0.074097  -0.297222  -0.284956   0.247101   0.304969
      9      -0.363813   0.350079   0.003837  -0.277840   0.025291   0.226362
     10       0.017142  -0.025141  -0.507635   0.071115   0.474290  -0.051219
     11       0.190728  -0.187100   0.075633   0.129885  -0.060799  -0.131008
     12      -0.380369   0.366465   0.276390   0.114575  -0.225884  -0.047841
     13      -0.152376   0.153927   0.030560   0.224980  -0.003198  -0.228811
     14      -0.035294   0.028316   0.197352  -0.407734  -0.227474   0.401783
     15      -0.372325  -0.382928  -0.056244  -0.286322  -0.004244  -0.249828
     16      -0.118662  -0.119235   0.312537  -0.078429   0.368810  -0.065029
     17      -0.077967  -0.089124  -0.327926  -0.063274  -0.393684  -0.089432
     18      -0.368235  -0.378629   0.229006   0.141261   0.188373   0.187489
     19       0.147669   0.158358  -0.159725   0.068766  -0.186230   0.063619
     20      -0.017652  -0.012410  -0.232204   0.401975  -0.257801   0.412656
     21      -0.352470  -0.361794  -0.207250   0.169425  -0.224483   0.086271
     22      -0.038784  -0.049807   0.176827   0.427589   0.217759   0.463602
     23       0.181701   0.189049   0.155244   0.025889   0.182587   0.043585
                 18         19         20         21         22         23    
      0      -0.038567   0.028721  -0.004093   0.002908   0.003765   0.003473
      1      -0.000111  -0.000155  -0.033775  -0.054458   0.041355  -0.053015
      2       0.002825  -0.002161  -0.055421   0.034008   0.051961   0.040793
      3      -0.027204  -0.039609   0.004584  -0.002729   0.004185   0.003328
      4       0.000121   0.000247   0.032143   0.058406   0.037194  -0.053004
      5       0.002421   0.003480   0.057168  -0.031662   0.053796   0.037592
      6       0.128261  -0.092493  -0.017397   0.166295  -0.004311   0.174813
      7       0.354654  -0.251599  -0.049061   0.426522  -0.004527   0.440062
      8      -0.274983   0.196401   0.019331  -0.332004   0.020926  -0.343294
      9       0.187279  -0.134889   0.216803  -0.099347  -0.207646  -0.125104
     10       0.053259  -0.039078   0.051327  -0.040327  -0.048759  -0.045956
     11       0.428413  -0.305394   0.468989  -0.215323  -0.444298  -0.265870
     12       0.142068  -0.103612  -0.150158  -0.102142   0.166937  -0.091150
     13      -0.406562   0.292650   0.403694   0.268755  -0.439631   0.237656
     14      -0.186869   0.133811   0.178256   0.138496  -0.195780   0.123100
     15       0.094781   0.134145   0.164154   0.053535   0.168779  -0.033687
     16      -0.234408  -0.326342  -0.377579  -0.116583  -0.380191   0.068018
     17      -0.226753  -0.317482  -0.358728  -0.132424  -0.366415   0.084613
     18       0.098514   0.139140  -0.039048  -0.181620  -0.054938   0.172800
     19       0.302376   0.421583  -0.108096  -0.517812  -0.153481   0.483977
     20      -0.100642  -0.139329   0.052187   0.171340   0.065067  -0.157349
     21       0.132808   0.187445  -0.180212   0.161142  -0.163552  -0.178716
     22      -0.069448  -0.098314   0.099170  -0.067592   0.090622   0.079528
     23       0.298320   0.416283  -0.380846   0.341966  -0.339667  -0.375214


-----------
IR SPECTRUM
-----------

 Mode   freq       eps      Int      T**2         TX        TY        TZ
       cm**-1   L/(mol*cm) km/mol    a.u.
----------------------------------------------------------------------------
  6:    255.04   0.000012    0.06  0.000015  ( 0.000061 -0.003671  0.001034)
  7:    844.76   0.001119    5.65  0.000413  (-0.000831  0.018779 -0.007740)
  8:    845.34   0.001126    5.69  0.000416  ( 0.001683  0.008623  0.018394)
  9:    996.13   0.000000    0.00  0.000000  (-0.000010  0.000174  0.000012)
 10:   1209.45   0.000004    0.02  0.000001  ( 0.000050 -0.000006  0.001054)
 11:   1209.77   0.000017    0.09  0.000004  (-0.000053  0.002021  0.000505)
 12:   1385.35   0.000682    3.45  0.000154  (-0.012347 -0.000287  0.001095)
 13:   1401.29   0.000000    0.00  0.000000  (-0.000189  0.000016 -0.000112)
 14:   1492.09   0.000364    1.84  0.000076  (-0.000505 -0.006391 -0.005916)
 15:   1492.79   0.000329    1.66  0.000069  (-0.000284  0.008001 -0.002154)
 16:   1496.72   0.001854    9.37  0.000387  (-0.000824  0.017445 -0.009029)
 17:   1497.22   0.001711    8.65  0.000357  ( 0.001547  0.009190  0.016427)
 18:   3045.63   0.010247   51.78  0.001050  (-0.032310 -0.000494  0.002405)
 19:   3046.02   0.000277    1.40  0.000028  (-0.005321 -0.000084  0.000213)
 20:   3112.25   0.000002    0.01  0.000000  ( 0.000219  0.000413 -0.000092)
 21:   3113.29   0.000002    0.01  0.000000  (-0.000041 -0.000328 -0.000218)
 22:   3135.97   0.009336   47.18  0.000929  ( 0.001844  0.018186  0.024390)
 23:   3136.82   0.009661   48.82  0.000961  ( 0.001466 -0.025002  0.018271)

* The epsilon (eps) is given for a Dirac delta lineshape.
** The dipole moment derivative (T) already includes vibrational overlap.

The first frequency considered to be a vibration is 6
The total number of vibrations considered is 18


--------------------------
THERMOCHEMISTRY AT 298.15K
--------------------------

Temperature         ... 298.15 K
Pressure            ... 1.00 atm
Total Mass          ... 30.07 AMU

Throughout the following assumptions are being made:
  (1) The electronic state is orbitally nondegenerate
  (2) There are no thermally accessible electronically excited states
  (3) Hindered rotations indicated by low frequency modes are not
      treated as such but are treated as vibrations and this may
      cause some error
  (4) All equations used are the standard statistical mechanics
      equations for an ideal gas
  (5) All vibrations are strictly harmonic

freq.     255.04  E(vib)   ...       0.30 
freq.     844.76  E(vib)   ...       0.04 
freq.     845.34  E(vib)   ...       0.04 
freq.     996.13  E(vib)   ...       0.02 
freq.    1209.45  E(vib)   ...       0.01 
freq.    1209.77  E(vib)   ...       0.01 
freq.    1385.35  E(vib)   ...       0.00 
freq.    1401.29  E(vib)   ...       0.00 
freq.    1492.09  E(vib)   ...       0.00 
freq.    1492.79  E(vib)   ...       0.00 
freq.    1496.72  E(vib)   ...       0.00 
freq.    1497.22  E(vib)   ...       0.00 
freq.    3045.63  E(vib)   ...       0.00 
freq.    3046.02  E(vib)   ...       0.00 
freq.    3112.25  E(vib)   ...       0.00 
freq.    3113.29  E(vib)   ...       0.00 
freq.    3135.97  E(vib)   ...       0.00 
freq.    3136.82  E(vib)   ...       0.00 

------------
INNER ENERGY
------------

The inner energy is: U= E(el) + E(ZPE) + E(vib) + E(rot) + E(trans)
    E(el)   - is the total energy from the electronic structure calculation
              = E(kin-el) + E(nuc-el) + E(el-el) + E(nuc-nuc)
    E(ZPE)  - the the zero temperature vibrational energy from the frequency calculation
    E(vib)  - the the finite temperature correction to E(ZPE) due to population
              of excited vibrational states
    E(rot)  - is the rotational thermal energy
    E(trans)- is the translational thermal energy

Summary of contributions to the inner energy U:
Electronic energy                ...    -79.74894602 Eh
Zero point energy                ...      0.07453237 Eh      46.77 kcal/mol
Thermal vibrational correction   ...      0.00071726 Eh       0.45 kcal/mol
Thermal rotational correction    ...      0.00141627 Eh       0.89 kcal/mol
Thermal translational correction ...      0.00141627 Eh       0.89 kcal/mol
-----------------------------------------------------------------------
Total thermal energy                    -79.67086384 Eh


Summary of corrections to the electronic energy:
(perhaps to be used in another calculation)
Total thermal correction                  0.00354981 Eh       2.23 kcal/mol
Non-thermal (ZPE) correction              0.07453237 Eh      46.77 kcal/mol
-----------------------------------------------------------------------
Total correction                          0.07808218 Eh      49.00 kcal/mol


--------
ENTHALPY
--------

The enthalpy is H = U + kB*T
                kB is Boltzmann's constant
Total free energy                 ...    -79.67086384 Eh 
Thermal Enthalpy correction       ...      0.00094421 Eh       0.59 kcal/mol
-----------------------------------------------------------------------
Total Enthalpy                    ...    -79.66991963 Eh


Note: Rotational entropy computed according to Herzberg 
Infrared and Raman Spectra, Chapter V,1, Van Nostrand Reinhold, 1945 
Point Group:  D3, Symmetry Number:   6  
Rotational constants in cm-1:     2.659369     0.665333     0.665327 

Vibrational entropy computed according to the QRRHO of S. Grimme
Chem.Eur.J. 2012 18 9955


-------
ENTROPY
-------

The entropy contributions are T*S = T*(S(el)+S(vib)+S(rot)+S(trans))
     S(el)   - electronic entropy
     S(vib)  - vibrational entropy
     S(rot)  - rotational entropy
     S(trans)- translational entropy
The entropies will be listed as multiplied by the temperature to get
units of energy

Electronic entropy                ...      0.00000000 Eh      0.00 kcal/mol
Vibrational entropy               ...      0.00109667 Eh      0.69 kcal/mol
Rotational entropy                ...      0.00774205 Eh      4.86 kcal/mol
Translational entropy             ...      0.01716939 Eh     10.77 kcal/mol
-----------------------------------------------------------------------
Final entropy term                ...      0.02600810 Eh     16.32 kcal/mol

In case the symmetry of your molecule has not been determined correctly
or in case you have a reason to use a different symmetry number we print 
out the resulting rotational entropy values for sn=1,12 :
 --------------------------------------------------------
|  sn= 1 | S(rot)=       0.00943379 Eh      5.92 kcal/mol|
|  sn= 2 | S(rot)=       0.00877934 Eh      5.51 kcal/mol|
|  sn= 3 | S(rot)=       0.00839650 Eh      5.27 kcal/mol|
|  sn= 4 | S(rot)=       0.00812488 Eh      5.10 kcal/mol|
|  sn= 5 | S(rot)=       0.00791419 Eh      4.97 kcal/mol|
|  sn= 6 | S(rot)=       0.00774205 Eh      4.86 kcal/mol|
|  sn= 7 | S(rot)=       0.00759650 Eh      4.77 kcal/mol|
|  sn= 8 | S(rot)=       0.00747042 Eh      4.69 kcal/mol|
|  sn= 9 | S(rot)=       0.00735921 Eh      4.62 kcal/mol|
|  sn=10 | S(rot)=       0.00725973 Eh      4.56 kcal/mol|
|  sn=11 | S(rot)=       0.00716974 Eh      4.50 kcal/mol|
|  sn=12 | S(rot)=       0.00708759 Eh      4.45 kcal/mol|
 --------------------------------------------------------


-------------------
GIBBS FREE ENERGY
-------------------

The Gibbs free energy is G = H - T*S

Total enthalpy                    ...    -79.66991963 Eh 
Total entropy correction          ...     -0.02600810 Eh    -16.32 kcal/mol
-----------------------------------------------------------------------
Final Gibbs free energy         ...    -79.69592774 Eh

For completeness - the Gibbs free energy minus the electronic energy
G-E(el)                           ...      0.05301829 Eh     33.27 kcal/mol



Timings for individual modules:

Sum of individual times         ...      210.444 sec (=   3.507 min)
GTO integral calculation        ...        4.674 sec (=   0.078 min)   2.2 %
SCF iterations                  ...        9.877 sec (=   0.165 min)   4.7 %
EPR/NMR calculation             ...        2.907 sec (=   0.048 min)   1.4 %
SCF Gradient evaluation         ...        5.026 sec (=   0.084 min)   2.4 %
Numerical frequency calculation ...      187.960 sec (=   3.133 min)  89.3 %
                             ****ORCA TERMINATED NORMALLY****
TOTAL RUN TIME: 0 days 0 hours 3 minutes 22 seconds 34 msec
