
                                 *****************
                                 * O   R   C   A *
                                 *****************

                                            #,                                       
                                            ###                                      
                                            ####                                     
                                            #####                                    
                                            ######                                   
                                           ########,                                 
                                     ,,################,,,,,                         
                               ,,#################################,,                 
                          ,,##########################################,,             
                       ,#########################################, ''#####,          
                    ,#############################################,,   '####,        
                  ,##################################################,,,,####,       
                ,###########''''           ''''###############################       
              ,#####''   ,,,,##########,,,,          '''####'''          '####       
            ,##' ,,,,###########################,,,                        '##       
           ' ,,###''''                  '''############,,,                           
         ,,##''                                '''############,,,,        ,,,,,,###''
      ,#''                                            '''#######################'''  
     '                                                          ''''####''''         
             ,#######,   #######,   ,#######,      ##                                
            ,#'     '#,  ##    ##  ,#'     '#,    #''#        ######   ,####,        
            ##       ##  ##   ,#'  ##            #'  '#       #        #'  '#        
            ##       ##  #######   ##           ,######,      #####,   #    #        
            '#,     ,#'  ##    ##  '#,     ,#' ,#      #,         ##   #,  ,#        
             '#######'   ##     ##  '#######'  #'      '#     #####' # '####'        



                  #######################################################
                  #                        -***-                        #
                  #          Department of theory and spectroscopy      #
                  #    Directorship and core code : Frank Neese         #
                  #        Max Planck Institute fuer Kohlenforschung    #
                  #                Kaiser Wilhelm Platz 1               #
                  #                 D-45470 Muelheim/Ruhr               #
                  #                      Germany                        #
                  #                                                     #
                  #                  All rights reserved                #
                  #                        -***-                        #
                  #######################################################


                         Program Version 5.0.3 -  RELEASE  -


 With contributions from (in alphabetic order):
   Daniel Aravena         : Magnetic Suceptibility
   Michael Atanasov       : Ab Initio Ligand Field Theory (pilot matlab implementation)
   Alexander A. Auer      : GIAO ZORA, VPT2 properties, NMR spectrum
   Ute Becker             : Parallelization
   Giovanni Bistoni       : ED, misc. LED, open-shell LED, HFLD
   Martin Brehm           : Molecular dynamics
   Dmytro Bykov           : SCF Hessian
   Vijay G. Chilkuri      : MRCI spin determinant printing, contributions to CSF-ICE
   Dipayan Datta          : RHF DLPNO-CCSD density
   Achintya Kumar Dutta   : EOM-CC, STEOM-CC
   Dmitry Ganyushin       : Spin-Orbit,Spin-Spin,Magnetic field MRCI
   Miquel Garcia          : C-PCM and meta-GGA Hessian, CC/C-PCM, Gaussian charge scheme
   Yang Guo               : DLPNO-NEVPT2, F12-NEVPT2, CIM, IAO-localization
   Andreas Hansen         : Spin unrestricted coupled pair/coupled cluster methods
   Benjamin Helmich-Paris : MC-RPA, TRAH-SCF, COSX integrals
   Lee Huntington         : MR-EOM, pCC
   Robert Izsak           : Overlap fitted RIJCOSX, COSX-SCS-MP3, EOM
   Marcus Kettner         : VPT2
   Christian Kollmar      : KDIIS, OOCD, Brueckner-CCSD(T), CCSD density, CASPT2, CASPT2-K
   Simone Kossmann        : Meta GGA functionals, TD-DFT gradient, OOMP2, MP2 Hessian
   Martin Krupicka        : Initial AUTO-CI
   Lucas Lang             : DCDCAS
   Marvin Lechner         : AUTO-CI (C++ implementation), FIC-MRCC
   Dagmar Lenk            : GEPOL surface, SMD
   Dimitrios Liakos       : Extrapolation schemes; Compound Job, initial MDCI parallelization
   Dimitrios Manganas     : Further ROCIS development; embedding schemes
   Dimitrios Pantazis     : SARC Basis sets
   Anastasios Papadopoulos: AUTO-CI, single reference methods and gradients
   Taras Petrenko         : DFT Hessian,TD-DFT gradient, ASA, ECA, R-Raman, ABS, FL, XAS/XES, NRVS
   Peter Pinski           : DLPNO-MP2, DLPNO-MP2 Gradient
   Christoph Reimann      : Effective Core Potentials
   Marius Retegan         : Local ZFS, SOC
   Christoph Riplinger    : Optimizer, TS searches, QM/MM, DLPNO-CCSD(T), (RO)-DLPNO pert. Triples
   Tobias Risthaus        : Range-separated hybrids, TD-DFT gradient, RPA, STAB
   Michael Roemelt        : Original ROCIS implementation
   Masaaki Saitow         : Open-shell DLPNO-CCSD energy and density
   Barbara Sandhoefer     : DKH picture change effects
   Avijit Sen             : IP-ROCIS
   Kantharuban Sivalingam : CASSCF convergence, NEVPT2, FIC-MRCI
   Bernardo de Souza      : ESD, SOC TD-DFT
   Georgi Stoychev        : AutoAux, RI-MP2 NMR, DLPNO-MP2 response
   Willem Van den Heuvel  : Paramagnetic NMR
   Boris Wezisla          : Elementary symmetry handling
   Frank Wennmohs         : Technical directorship


 We gratefully acknowledge several colleagues who have allowed us to
 interface, adapt or use parts of their codes:
   Stefan Grimme, W. Hujo, H. Kruse, P. Pracht,  : VdW corrections, initial TS optimization,
                  C. Bannwarth, S. Ehlert          DFT functionals, gCP, sTDA/sTD-DF
   Ed Valeev, F. Pavosevic, A. Kumar             : LibInt (2-el integral package), F12 methods
   Garnet Chan, S. Sharma, J. Yang, R. Olivares  : DMRG
   Ulf Ekstrom                                   : XCFun DFT Library
   Mihaly Kallay                                 : mrcc  (arbitrary order and MRCC methods)
   Jiri Pittner, Ondrej Demel                    : Mk-CCSD
   Frank Weinhold                                : gennbo (NPA and NBO analysis)
   Christopher J. Cramer and Donald G. Truhlar   : smd solvation model
   Lars Goerigk                                  : TD-DFT with DH, B97 family of functionals
   V. Asgeirsson, H. Jonsson                     : NEB implementation
   FAccTs GmbH                                   : IRC, NEB, NEB-TS, DLPNO-Multilevel, CI-OPT
                                                   MM, QMMM, 2- and 3-layer-ONIOM, Crystal-QMMM,
                                                   LR-CPCM, SF, NACMEs, symmetry and pop. for TD-DFT,
                                                   nearIR, NL-DFT gradient (VV10), updates on ESD,
                                                   ML-optimized integration grids
   S Lehtola, MJT Oliveira, MAL Marques          : LibXC Library
   Liviu Ungur et al                             : ANISO software


 Your calculation uses the libint2 library for the computation of 2-el integrals
 For citations please refer to: http://libint.valeyev.net

 Your ORCA version has been built with support for libXC version: 5.1.0
 For citations please refer to: https://tddft.org/programs/libxc/

 This ORCA versions uses:
   CBLAS   interface :  Fast vector & matrix operations
   LAPACKE interface :  Fast linear algebra routines
   Shared memory     :  Shared parallel matrices


SCAN-COORDS
================================================================================

----- Orbital basis set information -----
Your calculation utilizes the basis: def2-TZVP
   F. Weigend and R. Ahlrichs, Phys. Chem. Chem. Phys. 7, 3297 (2005).

----- AuxJ basis set information -----
Your calculation utilizes the auxiliary basis: def2/J
   F. Weigend, Phys. Chem. Chem. Phys. 8, 1057 (2006).

================================================================================
                                        WARNINGS
                       Please study these warnings very carefully!
================================================================================

WARNING: Gradients needed for Numerical Frequencies
  ===> : Setting RunTyp to EnGrad

WARNING: The environment variable RSH_COMMAND is not set!
  ===> : All Displacements for the Numerical Hessian or Gradient calculation
         will be started on localhost

INFO   : the flag for use of the SHARK integral package has been found!

================================================================================
                                       INPUT FILE
================================================================================
NAME = HCN_150.inp
|  1> ! PAL5 PBE0 NumFreq
|  2> %method
|  3>         method DFT
|  4>         runtyp Energy
|  5> end
|  6> %basis
|  7>         basis "def2-TZVP"
|  8> end
|  9> %coords
| 10>         CTyp xyz
| 11>         Charge 0
| 12>         Mult 1
| 13>         Units Angs
| 14>         coords
| 15> 	#150
| 16> 	C     -1.011290    0.960957    0.000001
| 17> 	N     -0.010067    0.911446   -0.578017
| 18> 	H     -2.068270    1.013340    0.000003
| 19> 	end
| 20> end
| 21> %eprnmr
| 22>         NMRShielding 1
| 23>         Nuclei = all N {shift}
| 24>         Nuclei = all C {shift}
| 25>         Nuclei = all H {shift}
| 26> endd                         ****END OF INPUT****
================================================================================

                     *******************************
                     * Energy+Gradient Calculation *
                     *******************************

---------------------------------
CARTESIAN COORDINATES (ANGSTROEM)
---------------------------------
  C     -1.011290    0.960957    0.000001
  N     -0.010067    0.911446   -0.578017
  H     -2.068270    1.013340    0.000003

----------------------------
CARTESIAN COORDINATES (A.U.)
----------------------------
  NO LB      ZA    FRAG     MASS         X           Y           Z
   0 C     6.0000    0    12.011   -1.911061    1.815946    0.000002
   1 N     7.0000    0    14.007   -0.019024    1.722383   -1.092294
   2 H     1.0000    0     1.008   -3.908464    1.914935    0.000006

--------------------------------
INTERNAL COORDINATES (ANGSTROEM)
--------------------------------
 C      0   0   0     0.000000000000     0.00000000     0.00000000
 N      1   0   0     1.157153249649     0.00000000     0.00000000
 H      1   2   0     1.058277231680   150.03204156     0.00000000

---------------------------
INTERNAL COORDINATES (A.U.)
---------------------------
 C      0   0   0     0.000000000000     0.00000000     0.00000000
 N      1   0   0     2.186702736814     0.00000000     0.00000000
 H      1   2   0     1.999854141640   150.03204156     0.00000000

---------------------
BASIS SET INFORMATION
---------------------
There are 3 groups of distinct atoms

 Group   1 Type C   : 11s6p2d1f contracted to 5s3p2d1f pattern {62111/411/11/1}
 Group   2 Type N   : 11s6p2d1f contracted to 5s3p2d1f pattern {62111/411/11/1}
 Group   3 Type H   : 5s1p contracted to 3s1p pattern {311/1}

Atom   0C    basis set group =>   1
Atom   1N    basis set group =>   2
Atom   2H    basis set group =>   3
---------------------------------
AUXILIARY/J BASIS SET INFORMATION
---------------------------------
There are 3 groups of distinct atoms

 Group   1 Type C   : 12s5p4d2f1g contracted to 6s4p3d1f1g pattern {711111/2111/211/2/1}
 Group   2 Type N   : 12s5p4d2f1g contracted to 6s4p3d1f1g pattern {711111/2111/211/2/1}
 Group   3 Type H   : 5s2p1d contracted to 3s1p1d pattern {311/2/1}

Atom   0C    basis set group =>   1
Atom   1N    basis set group =>   2
Atom   2H    basis set group =>   3


           ************************************************************
           *        Program running with 5 parallel MPI-processes     *
           *              working on a common directory               *
           ************************************************************
------------------------------------------------------------------------------
                           ORCA GTO INTEGRAL CALCULATION
                           -- RI-GTO INTEGRALS CHOSEN --
------------------------------------------------------------------------------
------------------------------------------------------------------------------
                   ___                                                        
                  /   \      - P O W E R E D   B Y -                         
                 /     \                                                     
                 |  |  |   _    _      __       _____    __    __             
                 |  |  |  | |  | |    /  \     |  _  \  |  |  /  |          
                  \  \/   | |  | |   /    \    | | | |  |  | /  /          
                 / \  \   | |__| |  /  /\  \   | |_| |  |  |/  /          
                |  |  |   |  __  | /  /__\  \  |    /   |      \           
                |  |  |   | |  | | |   __   |  |    \   |  |\   \          
                \     /   | |  | | |  |  |  |  | |\  \  |  | \   \       
                 \___/    |_|  |_| |__|  |__|  |_| \__\ |__|  \__/        
                                                                              
                      - O R C A' S   B I G   F R I E N D -                    
                                      &                                       
                       - I N T E G R A L  F E E D E R -                       
                                                                              
 v1 FN, 2020, v2 2021                                                         
------------------------------------------------------------------------------


Reading SHARK input file HCN_150.SHARKINP.tmp ... ok
----------------------
SHARK INTEGRAL PACKAGE
----------------------

Number of atoms                             ...      3
Number of basis functions                   ...     68
Number of shells                            ...     26
Maximum angular momentum                    ...      3
Integral batch strategy                     ... SHARK/LIBINT Hybrid
RI-J (if used) integral strategy            ... SPLIT-RIJ (Revised 2003 algorithm where possible)
Printlevel                                  ...      1
Contraction scheme used                     ... SEGMENTED contraction
Coulomb Range Separation                    ... NOT USED
Exchange Range Separation                   ... NOT USED
Finite Nucleus Model                        ... NOT USED
Auxiliary Coulomb fitting basis             ... AVAILABLE
   # of basis functions in Aux-J            ...    109
   # of shells in Aux-J                     ...     35
   Maximum angular momentum in Aux-J        ...      4
Auxiliary J/K fitting basis                 ... NOT available
Auxiliary Correlation fitting basis         ... NOT available
Auxiliary 'external' fitting basis          ... NOT available
Integral threshold                          ...     2.500000e-11
Primitive cut-off                           ...     2.500000e-12
Primitive pair pre-selection threshold      ...     2.500000e-12

Calculating pre-screening integrals         ... done (  0.0 sec) Dimension = 26
Organizing shell pair data                  ... done (  0.0 sec)
Shell pair information
Total number of shell pairs                 ...       351
Shell pairs after pre-screening             ...       350
Total number of primitive shell pairs       ...      1128
Primitive shell pairs kept                  ...      1030
          la=0 lb=0:     90 shell pairs
          la=1 lb=0:     91 shell pairs
          la=1 lb=1:     28 shell pairs
          la=2 lb=0:     52 shell pairs
          la=2 lb=1:     28 shell pairs
          la=2 lb=2:     10 shell pairs
          la=3 lb=0:     26 shell pairs
          la=3 lb=1:     14 shell pairs
          la=3 lb=2:      8 shell pairs
          la=3 lb=3:      3 shell pairs

Calculating one electron integrals          ... done (  0.0 sec)
Calculating RI/J V-Matrix + Cholesky decomp.... done (  0.0 sec)
Calculating Nuclear repulsion               ... done (  0.0 sec) ENN=     23.937966746288 Eh

SHARK setup successfully completed in   0.1 seconds

Maximum memory used throughout the entire GTOINT-calculation: 14.0 MB


           ************************************************************
           *        Program running with 5 parallel MPI-processes     *
           *              working on a common directory               *
           ************************************************************
-------------------------------------------------------------------------------
                                 ORCA SCF
-------------------------------------------------------------------------------

------------
SCF SETTINGS
------------
Hamiltonian:
 Density Functional     Method          .... DFT(GTOs)
 Exchange Functional    Exchange        .... PBE
   PBE kappa parameter   XKappa         ....  0.804000
   PBE mue parameter    XMuePBE         ....  0.219520
 Correlation Functional Correlation     .... PBE
   PBE beta parameter  CBetaPBE         ....  0.066725
 LDA part of GGA corr.  LDAOpt          .... PW91-LDA
 Gradients option       PostSCFGGA      .... off
 Hybrid DFT is turned on
   Fraction HF Exchange ScalHFX         ....  0.250000
   Scaling of DF-GGA-X  ScalDFX         ....  0.750000
   Scaling of DF-GGA-C  ScalDFC         ....  1.000000
   Scaling of DF-LDA-C  ScalLDAC        ....  1.000000
   Perturbative correction              ....  0.000000
   Density functional embedding theory  .... OFF
   NL short-range parameter             ....  6.900000
 RI-approximation to the Coulomb term is turned on
   Number of AuxJ basis functions       .... 109
   RIJ-COSX (HFX calculated with COS-X)).... on


General Settings:
 Integral files         IntName         .... HCN_150
 Hartree-Fock type      HFTyp           .... RHF
 Total Charge           Charge          ....    0
 Multiplicity           Mult            ....    1
 Number of Electrons    NEL             ....   14
 Basis Dimension        Dim             ....   68
 Nuclear Repulsion      ENuc            ....     23.9379667463 Eh

Convergence Acceleration:
 DIIS                   CNVDIIS         .... on
   Start iteration      DIISMaxIt       ....    12
   Startup error        DIISStart       ....  0.200000
   # of expansion vecs  DIISMaxEq       ....     5
   Bias factor          DIISBfac        ....   1.050
   Max. coefficient     DIISMaxC        ....  10.000
 Trust-Rad. Augm. Hess. CNVTRAH         .... auto
   Auto Start mean grad. ratio tolernc. ....  1.125000
   Auto Start start iteration           ....    20
   Auto Start num. interpolation iter.  ....    10
   Max. Number of Micro iterations      ....    16
   Max. Number of Macro iterations      .... Maxiter - #DIIS iter
   Number of Davidson start vectors     ....     2
   Converg. threshold I  (grad. norm)   ....   1.000e-05
   Converg. threshold II (energy diff.) ....   1.000e-08
   Grad. Scal. Fac. for Micro threshold ....   0.100
   Minimum threshold for Micro iter.    ....   0.010
   NR start threshold (gradient norm)   ....   0.001
   Initial trust radius                 ....   0.400
   Minimum AH scaling param. (alpha)    ....   1.000
   Maximum AH scaling param. (alpha)    .... 1000.000
   Orbital update algorithm             .... Taylor
   White noise on init. David. guess    .... on
   Maximum white noise                  ....   0.010
   Quad. conv. algorithm                .... NR
 SOSCF                  CNVSOSCF        .... on
   Start iteration      SOSCFMaxIt      ....   150
   Startup grad/error   SOSCFStart      ....  0.003300
 Level Shifting         CNVShift        .... on
   Level shift para.    LevelShift      ....    0.2500
   Turn off err/grad.   ShiftErr        ....    0.0010
 Zerner damping         CNVZerner       .... off
 Static damping         CNVDamp         .... on
   Fraction old density DampFac         ....    0.7000
   Max. Damping (<1)    DampMax         ....    0.9800
   Min. Damping (>=0)   DampMin         ....    0.0000
   Turn off err/grad.   DampErr         ....    0.1000
 Fernandez-Rico         CNVRico         .... off

SCF Procedure:
 Maximum # iterations   MaxIter         ....   125
 SCF integral mode      SCFMode         .... Direct
   Integral package                     .... SHARK and LIBINT hybrid scheme
 Reset frequency        DirectResetFreq ....    20
 Integral Threshold     Thresh          ....  2.500e-11 Eh
 Primitive CutOff       TCut            ....  2.500e-12 Eh

Convergence Tolerance:
 Convergence Check Mode ConvCheckMode   .... Total+1el-Energy
 Convergence forced     ConvForced      .... 0
 Energy Change          TolE            ....  1.000e-08 Eh
 1-El. energy change                    ....  1.000e-05 Eh
 Orbital Gradient       TolG            ....  1.000e-05
 Orbital Rotation angle TolX            ....  1.000e-05
 DIIS Error             TolErr          ....  5.000e-07


Diagonalization of the overlap matrix:
Smallest eigenvalue                        ... 6.193e-04
Time for diagonalization                   ...    0.001 sec
Threshold for overlap eigenvalues          ... 1.000e-08
Number of eigenvalues below threshold      ... 0
Time for construction of square roots      ...    0.005 sec
Total time needed                          ...    0.006 sec

Time for model grid setup =    0.017 sec

------------------------------
INITIAL GUESS: MODEL POTENTIAL
------------------------------
Loading Hartree-Fock densities                     ... done
Calculating cut-offs                               ... done
Initializing the effective Hamiltonian             ... done
Setting up the integral package (SHARK)            ... done
Starting the Coulomb interaction                   ... done (   0.0 sec)
Reading the grid                                   ... done
Mapping shells                                     ... done
Starting the XC term evaluation                    ... done (   0.0 sec)
  promolecular density results
     # of electrons  =     13.999652222
     EX              =    -11.843606617
     EC              =     -0.432860666
     EX+EC           =    -12.276467284
Transforming the Hamiltonian                       ... done (   0.0 sec)
Diagonalizing the Hamiltonian                      ... done (   0.0 sec)
Back transforming the eigenvectors                 ... done (   0.0 sec)
Now organizing SCF variables                       ... done
                      ------------------
                      INITIAL GUESS DONE (   0.0 sec)
                      ------------------
-------------------
DFT GRID GENERATION
-------------------

General Integration Accuracy     IntAcc      ... 4.388
Radial Grid Type                 RadialGrid  ... OptM3 with GC (2021)
Angular Grid (max. ang.)         AngularGrid ... 4 (Lebedev-302)
Angular grid pruning method      GridPruning ... 4 (adaptive)
Weight generation scheme         WeightScheme... Becke
Basis function cutoff            BFCut       ... 1.0000e-11
Integration weight cutoff        WCut        ... 1.0000e-14
Angular grids for H and He will be reduced by one unit
Partially contracted basis set               ... off
Rotationally invariant grid construction     ... off

Total number of grid points                  ...    15545
Total number of batches                      ...      245
Average number of points per batch           ...       63
Average number of grid points per atom       ...     5182
Time for grid setup =    0.060 sec

--------------------
COSX GRID GENERATION
--------------------

GRIDX 1
-------
General Integration Accuracy     IntAcc      ... 3.816
Radial Grid Type                 RadialGrid  ... OptM3 with GC (2021)
Angular Grid (max. ang.)         AngularGrid ... 1 (Lebedev-50)
Angular grid pruning method      GridPruning ... 4 (adaptive)
Weight generation scheme         WeightScheme... Becke
Basis function cutoff            BFCut       ... 1.0000e-11
Integration weight cutoff        WCut        ... 1.0000e-14
Angular grids for H and He will be reduced by one unit
Partially contracted basis set               ... on
Rotationally invariant grid construction     ... off

Total number of grid points                  ...     1982
Total number of batches                      ...       32
Average number of points per batch           ...       61
Average number of grid points per atom       ...      661
UseSFitting                                  ... on

GRIDX 2
-------
General Integration Accuracy     IntAcc      ... 4.020
Radial Grid Type                 RadialGrid  ... OptM3 with GC (2021)
Angular Grid (max. ang.)         AngularGrid ... 2 (Lebedev-110)
Angular grid pruning method      GridPruning ... 4 (adaptive)
Weight generation scheme         WeightScheme... Becke
Basis function cutoff            BFCut       ... 1.0000e-11
Integration weight cutoff        WCut        ... 1.0000e-14
Angular grids for H and He will be reduced by one unit
Partially contracted basis set               ... on
Rotationally invariant grid construction     ... off

Total number of grid points                  ...     4567
Total number of batches                      ...       73
Average number of points per batch           ...       62
Average number of grid points per atom       ...     1522
UseSFitting                                  ... on

GRIDX 3
-------
General Integration Accuracy     IntAcc      ... 4.338
Radial Grid Type                 RadialGrid  ... OptM3 with GC (2021)
Angular Grid (max. ang.)         AngularGrid ... 3 (Lebedev-194)
Angular grid pruning method      GridPruning ... 4 (adaptive)
Weight generation scheme         WeightScheme... Becke
Basis function cutoff            BFCut       ... 1.0000e-11
Integration weight cutoff        WCut        ... 1.0000e-14
Angular grids for H and He will be reduced by one unit
Partially contracted basis set               ... on
Rotationally invariant grid construction     ... off

Total number of grid points                  ...    10175
Total number of batches                      ...      160
Average number of points per batch           ...       63
Average number of grid points per atom       ...     3392
UseSFitting                                  ... on

Time for X-Grid setup             =    0.095 sec

--------------
SCF ITERATIONS
--------------
ITER       Energy         Delta-E        Max-DP      RMS-DP      [F,P]     Damp
               ***  Starting incremental Fock matrix formation  ***
  0    -93.2536448854   0.000000000000 0.04099468  0.00203189  0.2743927 0.7000
  1    -93.2955062303  -0.041861344817 0.02370529  0.00124700  0.1012740 0.7000
                               ***Turning on DIIS***
  2    -93.3074557469  -0.011949516670 0.03949251  0.00172320  0.0408951 0.0000
  3    -93.3318391284  -0.024383381482 0.01878329  0.00103881  0.0552825 0.0000
  4    -93.3349073991  -0.003068270673 0.00836644  0.00044556  0.0311711 0.0000
  5    -93.3360115295  -0.001104130433 0.00259235  0.00012272  0.0066274 0.0000
                      *** Initiating the SOSCF procedure ***
                           *** Shutting down DIIS ***
                      *** Re-Reading the Fockian *** 
                      *** Removing any level shift *** 
ITER      Energy       Delta-E        Grad      Rot      Max-DP    RMS-DP
  6    -93.33606176  -0.0000502270  0.000305  0.000305  0.000662  0.000036
               *** Restarting incremental Fock matrix formation ***
  7    -93.33605391   0.0000078508  0.000223  0.000639  0.000339  0.000022
  8    -93.33605293   0.0000009801  0.000531  0.000388  0.000239  0.000012
  9    -93.33605419  -0.0000012632  0.000016  0.000016  0.000041  0.000001
 10    -93.33605419  -0.0000000017  0.000009  0.000008  0.000010  0.000000
                  ***Gradient check signals convergence***
              ***Rediagonalizing the Fockian in SOSCF/NRSCF***

               *****************************************************
               *                     SUCCESS                       *
               *           SCF CONVERGED AFTER  11 CYCLES          *
               *****************************************************

Old exchange energy                            =     -3.010331124 Eh
New exchange energy                            =     -3.010333621 Eh
Exchange energy change after final integration =     -0.000002497 Eh
Total energy after final integration           =    -93.336056688 Eh
Final COS-X integration done in                =     0.106 sec

----------------
TOTAL SCF ENERGY
----------------

Total Energy       :          -93.33605669 Eh           -2539.80322 eV

Components:
Nuclear Repulsion  :           23.93796675 Eh             651.38519 eV
Electronic Energy  :         -117.27402343 Eh           -3191.18841 eV
One Electron Energy:         -172.89189788 Eh           -4704.62772 eV
Two Electron Energy:           55.61787445 Eh            1513.43931 eV
Max COSX asymmetry :            0.00000149 Eh               0.00004 eV

Virial components:
Potential Energy   :         -186.27970346 Eh           -5068.92843 eV
Kinetic Energy     :           92.94364677 Eh            2529.12521 eV
Virial Ratio       :            2.00422202


DFT components:
N(Alpha)           :        7.000000068878 electrons
N(Beta)            :        7.000000068878 electrons
N(Total)           :       14.000000137755 electrons
E(X)               :       -9.034766694645 Eh       
E(C)               :       -0.441237229440 Eh       
E(XC)              :       -9.476003924085 Eh       
DFET-embed. en.    :        0.000000000000 Eh       

---------------
SCF CONVERGENCE
---------------

  Last Energy change         ...   -8.8905e-10  Tolerance :   1.0000e-08
  Last MAX-Density change    ...    9.9920e-16  Tolerance :   1.0000e-07
  Last RMS-Density change    ...    2.7217e-17  Tolerance :   5.0000e-09
  Last Orbital Gradient      ...    8.4430e-07  Tolerance :   1.0000e-05
  Last Orbital Rotation      ...    1.7716e-06  Tolerance :   1.0000e-05

             **** THE GBW FILE WAS UPDATED (HCN_150.gbw) ****
             **** DENSITY HCN_150.scfp WAS UPDATED ****
             **** ENERGY FILE WAS UPDATED (HCN_150.en.tmp) ****
             **** THE GBW FILE WAS UPDATED (HCN_150.gbw) ****
             **** DENSITY HCN_150.scfp WAS UPDATED ****
----------------
ORBITAL ENERGIES
----------------

  NO   OCC          E(Eh)            E(eV) 
   0   2.0000     -14.414494      -392.2383 
   1   2.0000     -10.277273      -279.6588 
   2   2.0000      -0.954034       -25.9606 
   3   2.0000      -0.622633       -16.9427 
   4   2.0000      -0.409546       -11.1443 
   5   2.0000      -0.382778       -10.4159 
   6   2.0000      -0.379154       -10.3173 
   7   0.0000      -0.031086        -0.8459 
   8   0.0000       0.008057         0.2192 
   9   0.0000       0.082189         2.2365 
  10   0.0000       0.115399         3.1402 
  11   0.0000       0.220636         6.0038 
  12   0.0000       0.226582         6.1656 
  13   0.0000       0.279738         7.6121 
  14   0.0000       0.349379         9.5071 
  15   0.0000       0.400429        10.8962 
  16   0.0000       0.439922        11.9709 
  17   0.0000       0.473570        12.8865 
  18   0.0000       0.570401        15.5214 
  19   0.0000       0.623401        16.9636 
  20   0.0000       0.637282        17.3413 
  21   0.0000       0.671076        18.2609 
  22   0.0000       0.795638        21.6504 
  23   0.0000       0.967687        26.3321 
  24   0.0000       1.138841        30.9894 
  25   0.0000       1.173806        31.9409 
  26   0.0000       1.207333        32.8532 
  27   0.0000       1.267799        34.4986 
  28   0.0000       1.378018        37.4978 
  29   0.0000       1.405546        38.2469 
  30   0.0000       1.416139        38.5351 
  31   0.0000       1.513831        41.1934 
  32   0.0000       1.587580        43.2002 
  33   0.0000       1.804204        49.0949 
  34   0.0000       1.937233        52.7148 
  35   0.0000       2.091574        56.9146 
  36   0.0000       2.136947        58.1493 
  37   0.0000       2.222252        60.4706 
  38   0.0000       2.269994        61.7697 
  39   0.0000       2.407355        65.5075 
  40   0.0000       2.641295        71.8733 
  41   0.0000       2.650323        72.1190 
  42   0.0000       2.657279        72.3082 
  43   0.0000       2.829300        76.9892 
  44   0.0000       2.885648        78.5225 
  45   0.0000       2.903822        79.0170 
  46   0.0000       2.954076        80.3845 
  47   0.0000       3.029823        82.4457 
  48   0.0000       3.051751        83.0424 
  49   0.0000       3.309344        90.0518 
  50   0.0000       3.402661        92.5911 
  51   0.0000       3.483968        94.8036 
  52   0.0000       3.941637       107.2574 
  53   0.0000       3.958983       107.7294 
  54   0.0000       4.002943       108.9256 
  55   0.0000       4.168358       113.4268 
  56   0.0000       4.493869       122.2844 
  57   0.0000       4.533745       123.3695 
  58   0.0000       4.610320       125.4532 
  59   0.0000       4.631283       126.0236 
  60   0.0000       4.927180       134.0754 
  61   0.0000       5.120943       139.3479 
  62   0.0000       5.363210       145.9404 
  63   0.0000       5.434622       147.8836 
  64   0.0000       5.566450       151.4708 
  65   0.0000       5.884025       160.1125 
  66   0.0000      22.293389       606.6340 
  67   0.0000      31.929467       868.8450 

                    ********************************
                    * MULLIKEN POPULATION ANALYSIS *
                    ********************************

-----------------------
MULLIKEN ATOMIC CHARGES
-----------------------
   0 C :   -0.153722
   1 N :   -0.052109
   2 H :    0.205832
Sum of atomic charges:    0.0000000

--------------------------------
MULLIKEN REDUCED ORBITAL CHARGES
--------------------------------
  0 C s       :     3.262286  s :     3.262286
      pz      :     0.932196  p :     2.825025
      px      :     0.985091
      py      :     0.907738
      dz2     :     0.013692  d :     0.054934
      dxz     :     0.011367
      dyz     :     0.006147
      dx2y2   :     0.013352
      dxy     :     0.010376
      f0      :     0.000303  f :     0.011478
      f+1     :     0.003692
      f-1     :     0.000005
      f+2     :     0.001128
      f-2     :     0.001565
      f+3     :     0.002031
      f-3     :     0.002753
  1 N s       :     3.711925  s :     3.711925
      pz      :     1.009118  p :     3.292757
      px      :     1.235224
      py      :     1.048416
      dz2     :     0.009919  d :     0.045107
      dxz     :     0.009608
      dyz     :     0.004733
      dx2y2   :     0.006643
      dxy     :     0.014204
      f0      :     0.000042  f :     0.002320
      f+1     :     0.000861
      f-1     :     0.000008
      f+2     :     0.000122
      f-2     :     0.000508
      f+3     :     0.000196
      f-3     :     0.000582
  2 H s       :     0.770928  s :     0.770928
      pz      :     0.004083  p :     0.023241
      px      :     0.015558
      py      :     0.003599


                     *******************************
                     * LOEWDIN POPULATION ANALYSIS *
                     *******************************

----------------------
LOEWDIN ATOMIC CHARGES
----------------------
   0 C :   -0.181561
   1 N :    0.054936
   2 H :    0.126625

-------------------------------
LOEWDIN REDUCED ORBITAL CHARGES
-------------------------------
  0 C s       :     2.963116  s :     2.963116
      pz      :     0.962789  p :     2.947975
      px      :     1.102554
      py      :     0.882632
      dz2     :     0.031106  d :     0.218586
      dxz     :     0.074987
      dyz     :     0.012955
      dx2y2   :     0.064718
      dxy     :     0.034820
      f0      :     0.003433  f :     0.051884
      f+1     :     0.014218
      f-1     :     0.000102
      f+2     :     0.009448
      f-2     :     0.007288
      f+3     :     0.009439
      f-3     :     0.007955
  1 N s       :     3.330794  s :     3.330794
      pz      :     1.068599  p :     3.485983
      px      :     1.408837
      py      :     1.008547
      dz2     :     0.018672  d :     0.112714
      dxz     :     0.036491
      dyz     :     0.007814
      dx2y2   :     0.025895
      dxy     :     0.023842
      f0      :     0.001377  f :     0.015574
      f+1     :     0.003764
      f-1     :     0.000030
      f+2     :     0.003754
      f-2     :     0.002036
      f+3     :     0.002347
      f-3     :     0.002266
  2 H s       :     0.801885  s :     0.801885
      pz      :     0.013427  p :     0.071490
      px      :     0.046089
      py      :     0.011974


                      *****************************
                      * MAYER POPULATION ANALYSIS *
                      *****************************

  NA   - Mulliken gross atomic population
  ZA   - Total nuclear charge
  QA   - Mulliken gross atomic charge
  VA   - Mayer's total valence
  BVA  - Mayer's bonded valence
  FA   - Mayer's free valence

  ATOM       NA         ZA         QA         VA         BVA        FA
  0 C      6.1537     6.0000    -0.1537     3.9342     3.9342    -0.0000
  1 N      7.0521     7.0000    -0.0521     3.0187     3.0187    -0.0000
  2 H      0.7942     1.0000     0.2058     0.9635     0.9635     0.0000

  Mayer bond orders larger than 0.100000
B(  0-C ,  1-N ) :   2.9947 B(  0-C ,  2-H ) :   0.9395 

-------
TIMINGS
-------

Total SCF time: 0 days 0 hours 0 min 1 sec 

Total time                  ....       1.886 sec
Sum of individual times     ....       1.733 sec  ( 91.9%)

Fock matrix formation       ....       1.449 sec  ( 76.8%)
  Split-RI-J                ....       0.153 sec  ( 10.6% of F)
  Chain of spheres X        ....       0.704 sec  ( 48.6% of F)
  XC integration            ....       0.327 sec  ( 22.6% of F)
    Basis function eval.    ....       0.049 sec  ( 15.0% of XC)
    Density eval.           ....       0.041 sec  ( 12.5% of XC)
    XC-Functional eval.     ....       0.016 sec  (  4.9% of XC)
    XC-Potential eval.      ....       0.037 sec  ( 11.3% of XC)
Diagonalization             ....       0.029 sec  (  1.5%)
Density matrix formation    ....       0.001 sec  (  0.1%)
Population analysis         ....       0.014 sec  (  0.7%)
Initial guess               ....       0.019 sec  (  1.0%)
Orbital Transformation      ....       0.000 sec  (  0.0%)
Orbital Orthonormalization  ....       0.000 sec  (  0.0%)
DIIS solution               ....       0.030 sec  (  1.6%)
SOSCF solution              ....       0.019 sec  (  1.0%)
Grid generation             ....       0.172 sec  (  9.1%)

Maximum memory used throughout the entire SCF-calculation: 58.4 MB

-------------------------   --------------------
FINAL SINGLE POINT ENERGY       -93.336056688189
-------------------------   --------------------



           ************************************************************
           *        Program running with 5 parallel MPI-processes     *
           *              working on a common directory               *
           ************************************************************
------------------------------------------------------------------------------
                         ORCA SCF GRADIENT CALCULATION
------------------------------------------------------------------------------

 ... reading COSX grid (gridx3)
Gradient of the Kohn-Sham DFT energy:
Kohn-Sham wavefunction type      ... RKS
Hartree-Fock exchange scaling    ...    0.250
Number of operators              ...    1
Number of atoms                  ...    3
Basis set dimensions             ...   68
Integral neglect threshold       ... 2.5e-11
Integral primitive cutoff        ... 2.5e-12
SHARK Integral package           ... ON

Nuc. rep. gradient       (SHARK) ... done (  0.0 sec)
HCore & Overlap gradient (SHARK) ... done (  0.0 sec)
RI-J gradient            (SHARK) ... done (  0.0 sec)
COSX-gradient                    ... done (  0.1 sec)
Exchange-correlation gradient    ... done

------------------
CARTESIAN GRADIENT
------------------

   1   C   :   -0.019399754    0.000958759    0.039836076
   2   N   :    0.008239554   -0.000430516   -0.022825329
   3   H   :    0.011071670   -0.000545918   -0.017036529

Difference to translation invariance:
           :   -0.0000885295   -0.0000176750   -0.0000257813

Difference to rotation invariance:
           :   -0.0000679156    0.0001083058    0.0001453398

Norm of the cartesian gradient     ...    0.0544644566
RMS gradient                       ...    0.0181548189
MAX gradient                       ...    0.0398360758

-------
TIMINGS
-------

Total SCF gradient time            ...        0.352 sec

One electron gradient       ....       0.003 sec  (  0.9%)
RI-J Coulomb gradient       ....       0.044 sec  ( 12.5%)
COSX gradient               ....       0.141 sec  ( 40.1%)
XC gradient                 ....       0.060 sec  ( 17.0%)

Maximum memory used throughout the entire SCFGRAD-calculation: 33.5 MB

                            ***************************************
                            *     ORCA property calculations      *
                            ***************************************

                                    ---------------------
                                    Active property flags
                                    ---------------------
   (+) Dipole Moment
   (+) Chemical Shifts
   (+) Nuclear properties (Hyperfine,Quadrupole)


------------------------------------------------------------------------------
                       ORCA ELECTRIC PROPERTIES CALCULATION
------------------------------------------------------------------------------

Dipole Moment Calculation                       ... on
Quadrupole Moment Calculation                   ... off
Polarizability Calculation                      ... off
GBWName                                         ... HCN_150.gbw
Electron density                                ... HCN_150.scfp
The origin for moment calculation is the CENTER OF MASS  = (-1.004956,  1.771146 -0.566112)

-------------
DIPOLE MOMENT
-------------
                                X             Y             Z
Electronic contribution:      0.37279      -0.01848       0.03538
Nuclear contribution   :     -1.43861       0.07124       0.27952
                        -----------------------------------------
Total Dipole Moment    :     -1.06582       0.05276       0.31490
                        -----------------------------------------
Magnitude (a.u.)       :      1.11262
Magnitude (Debye)      :      2.82805



--------------------
Rotational spectrum 
--------------------
 
Rotational constants in cm-1:    79.100510     1.530145     1.501107 
Rotational constants in MHz : 2371373.640575 45872.600937 45002.066740 

 Dipole components along the rotational axes: 
x,y,z [a.u.] :     1.097920    -0.180248     0.000001 
x,y,z [Debye]:     2.790690    -0.458153     0.000003 

 


           ************************************************************
           *        Program running with 5 parallel MPI-processes     *
           *              working on a common directory               *
           ************************************************************
------------------------------------------------------------------------------
                                ORCA EPR/NMR CALCULATION
------------------------------------------------------------------------------

GBWName                      ... HCN_150.gbw
Electron density             ... HCN_150.scfp
Spin density                 ... HCN_150.scfr
Treatment of gauge           ... GIAO (approximations 1/2el = 0,0)
Details of the CP(SCF) procedure:
       Solver   = POPLE   
       MaxIter  =    64   
       Tolerance=    1.000e-04
       COSX Grid=     1   
       Op-0     =   0-  6 =>   7- 67
Multiplicity                 ... 1
g-tensor                     ... 0
NMR chemical shifts          ... 1
NMR spin-spin couplings      ... 0
NMR spectrum                 ... 0
Number of nuclei for epr/nmr ... 3
   Nucleus:   1N 
       Hyperfine : Isotope=   14 I=   1.000 P=  38.568
       Quadrupole: Isotope=   14 I=   1.000 Q=   0.020
       Spin-Orbit: Zeff=   4.550
       Nuclear Spin-Spin: Gn=   0.000
       EPRNMR Input: 
       rho(0)=N f(grad)=N a(iso)=N a(dip)=N a(orb)=N sigma(nmr)=Y spin-spin(nmr)=all-N,DSO-N,PSO-N,FC-N,SD-N
   Nucleus:   0C 
       Hyperfine : Isotope=   13 I=   0.500 P= 134.190
       Quadrupole: Isotope=   13 I=   0.500 Q=   0.000
       Spin-Orbit: Zeff=   3.600
       Nuclear Spin-Spin: Gn=   0.000
       EPRNMR Input: 
       rho(0)=N f(grad)=N a(iso)=N a(dip)=N a(orb)=N sigma(nmr)=Y spin-spin(nmr)=all-N,DSO-N,PSO-N,FC-N,SD-N
   Nucleus:   2H 
       Hyperfine : Isotope=    1 I=   0.500 P= 533.551
       Quadrupole: Isotope=    2 I=   1.000 Q=   0.003
       Spin-Orbit: Zeff=   1.000
       Nuclear Spin-Spin: Gn=   0.000
       EPRNMR Input: 
       rho(0)=N f(grad)=N a(iso)=N a(dip)=N a(orb)=N sigma(nmr)=Y spin-spin(nmr)=all-N,DSO-N,PSO-N,FC-N,SD-N
Forming RHS of the CP-SCF equations         ... 
Calculating right hand sides for GIAO treatment        ... 
  Entering RightHandSide GIAO. ScalHFX=    0.2500 NeedHFX=1
     -> 1-electron GIAO integrals will be done analytically
     -> RIJCOSX used in SCF. Same chosen for GIAO calculation.
     Making grid for GIAO integrations   ...

GRID GIAO
---------

General Integration Accuracy     IntAcc      ... 4.388
Radial Grid Type                 RadialGrid  ... OptM3 with GC (2021)
Angular Grid (max. ang.)         AngularGrid ... 4 (Lebedev-302)
Angular grid pruning method      GridPruning ... 4 (adaptive)
Weight generation scheme         WeightScheme... Becke
Basis function cutoff            BFCut       ... 1.0000e-11
Integration weight cutoff        WCut        ... 1.0000e-14
Angular grids for H and He will be reduced by one unit
Partially contracted basis set               ... off
Rotationally invariant grid construction     ... off

Total number of grid points                  ...    15545
Total number of batches                      ...      245
Average number of points per batch           ...       63
Average number of grid points per atom       ...     5182

  One-electron GIAO integrals (SHARK)     ... done
  Calculating G(B)[P]                     ... (RI-J: SHARK-ok) (COSX-ok) (add-J+K:ok) => dG/dB done
  DFT XC-terms                            ... done
  Extracting occupied and virtual blocks  ... 
  Operator  0  NO=   7 NV=  61 
  Transforming and RHS contribution       ... done
  Adding eps_i * S(B)_ai terms            ... done
  Projecting overlap derivatives          ... done
  Building G[dS/dB_ij] (COSX)             ... done
  Transforming to MO basis                ... done
  Summing G[dS/dB_ij] into RHS contribs.  ... done

  GIAO profiling information: 
    Total GIAO time               ...       0.3 sec
       GIAO 1-electron integrals  ...       0.0 sec (  1.0%)
       GIAO G(dS/dB) terms        ...       0.1 sec ( 16.9%)
       GIAO RI-J                  ...       0.0 sec (  6.1%)
       GIAO COSX                  ...       0.1 sec ( 25.5%)
       GIAO XC-terms              ...       0.1 sec ( 31.5%)

  GIAO right hand side done


------------------------------------------------------------------------------
                           ORCA CP-SCF CALCULATION
------------------------------------------------------------------------------

Input orbitals are from        ... HCN_150.gbw
Input Perturbation             ... HCN_150.pin.tmp
Wavefunction output            ... HCN_150.pout.tmp
Perturbation mode              ... Imaginary perturbation
Solver                         ... POPLE
Max. number of iterations      ... 64
Convergence tolerance          ... 1.000e-04
Integral handling              ... Direct
DFT GridXC                     ... 1
COSX GridX                     ... 1
COSX IntAccX                   ... 3.067
COSX Algorithm                 ... Auto
Number of perturbations        ... 3
Number of operators            ... 1
Orbital ranges used for CP-SCF:
 Operator 0:  Orbitals   0...  6  to   7... 67
Variables per perturbation     ... 427
DFT calculation                         ... on
XC functional terms                     ... off
Hybrid DFT                              ... on
   Exchange mixing (SCF)                ...  0.250
   Exchange mixing (CP-SCF)             ...  0.250
   GGA exch. scaling(SCF)               ...  0.750
   GGA exch. scaling (CP-SCF)           ...  0.750
   GGA corr. scaling (SCF)              ...  1.000
   GGA corr. scaling (CP-SCF)           ...  1.000

CP-SCF GRID
-----------

General Integration Accuracy     IntAcc      ... 3.467
Radial Grid Type                 RadialGrid  ... OptM3 with GC (2021)
Angular Grid (max. ang.)         AngularGrid ... 1 (Lebedev-50)
Angular grid pruning method      GridPruning ... 4 (adaptive)
Weight generation scheme         WeightScheme... Becke
Basis function cutoff            BFCut       ... 1.0000e-11
Integration weight cutoff        WCut        ... 1.0000e-14
Angular grids for H and He will be reduced by one unit
Partially contracted basis set               ... off
Rotationally invariant grid construction     ... off

Total number of grid points                  ...     2368
Total number of batches                      ...       39
Average number of points per batch           ...       60
Average number of grid points per atom       ...      789

CP-SCF GRIDX
------------

General Integration Accuracy     IntAcc      ... 3.067
Radial Grid Type                 RadialGrid  ... OptM3 with GC (2021)
Angular Grid (max. ang.)         AngularGrid ... 1 (Lebedev-50)
Angular grid pruning method      GridPruning ... 4 (adaptive)
Weight generation scheme         WeightScheme... Becke
Basis function cutoff            BFCut       ... 1.0000e-11
Integration weight cutoff        WCut        ... 1.0000e-14
Angular grids for H and He will be reduced by one unit
Partially contracted basis set               ... on
Rotationally invariant grid construction     ... off

Total number of grid points                  ...     1054
Total number of batches                      ...       18
Average number of points per batch           ...       58
Average number of grid points per atom       ...      351

Memory available               ... 1015.8 MB
Memory needed per perturbation ...   0.2 MB
Perturbations treated per batch... 3
Number of batches              ... 1
     CP-SCF ITERATION   0:   3.0395e-01 (   0.0 sec   0/  3 done)
     CP-SCF ITERATION   1:   8.7675e-03 (   0.0 sec   0/  3 done)
     CP-SCF ITERATION   2:   1.1684e-03 (   0.0 sec   0/  3 done)
     CP-SCF ITERATION   3:   1.2404e-04 (   0.0 sec   2/  3 done)
     CP-SCF ITERATION   4:   1.1068e-05 (   0.0 sec   3/  3 done)
                    *** THE CP-SCF HAS CONVERGED ***

Forming final perturbed densities           ... done
Transforming perturbed density to AO basis  ... done

Magnetic field perturbation calculated in  0.613 sec

---------------
CHEMICAL SHIFTS
---------------

Note: using conversion factor for au to ppm alpha^2/2 =   26.625677252 
GIAO: Analytic para- and diamagnetic shielding integrals (SHARK)       ...done
 --------------
 Nucleus   1N :
 --------------

Diamagnetic contribution to the shielding tensor (ppm) : 
           332.379         -0.810       -10.960
            -0.858        315.067         0.542
           -11.438          0.231       322.558

Paramagnetic contribution to the shielding tensor (ppm): 
           -84.087        -27.095      -242.163
           -27.056       -629.154        11.962
          -124.611          6.468      -499.268

Total shielding tensor (ppm): 
           248.291        -27.905      -253.123
           -27.913       -314.087        12.505
          -136.049          6.698      -176.710


 Diagonalized sT*s matrix:
 
 sDSO           317.373          315.027          337.603  iso=     323.334
 sPSO          -433.507         -630.496         -148.507  iso=    -404.170
        ---------------  ---------------  ---------------
 Total         -116.134         -315.469          189.097  iso=     -80.835

 --------------
 Nucleus   0C :
 --------------

Diamagnetic contribution to the shielding tensor (ppm) : 
           275.231         -2.044        -4.468
            -0.748        260.212         0.221
            -8.014         -6.360       264.922

Paramagnetic contribution to the shielding tensor (ppm): 
           -69.815         -9.380      -104.539
           -10.661       -285.054         5.175
          -160.147         14.679      -232.027

Total shielding tensor (ppm): 
           205.415        -11.424      -109.007
           -11.410        -24.842         5.395
          -168.161          8.320        32.895


 Diagonalized sT*s matrix:
 
 sDSO           260.110          262.157          278.097  iso=     266.788
 sPSO          -285.517         -301.443            0.065  iso=    -195.632
        ---------------  ---------------  ---------------
 Total          -25.407          -39.287          278.162  iso=      71.156

 --------------
 Nucleus   2H :
 --------------

Diamagnetic contribution to the shielding tensor (ppm) : 
            39.563         -1.583        -0.121
            -0.790         23.693         0.006
            -0.836         -1.114        24.497

Paramagnetic contribution to the shielding tensor (ppm): 
            -4.128          1.039        -0.709
             0.247          0.780         0.035
            -9.405          1.622         0.028

Total shielding tensor (ppm): 
            35.435         -0.544        -0.831
            -0.543         24.473         0.041
           -10.242          0.509        24.525


 Diagonalized sT*s matrix:
 
 sDSO            25.712           23.614           38.427  iso=      29.251
 sPSO            -3.411            0.832           -0.742  iso=      -1.107
        ---------------  ---------------  ---------------
 Total           22.301           24.446           37.686  iso=      28.144



--------------------------------
CHEMICAL SHIELDING SUMMARY (ppm)
--------------------------------


  Nucleus  Element    Isotropic     Anisotropy
  -------  -------  ------------   ------------
      1       N          -80.835        404.898 
      0       C           71.156        310.508 
      2       H           28.144         14.312 



Maximum memory used throughout the entire EPRNMR-calculation: 10.2 MB

----------------------------------------------------------------------------
                           ORCA NUMERICAL FREQUENCIES
                              (5-process run)
----------------------------------------------------------------------------

Number of atoms                ... 3
Central differences            ... used
Number of displacements        ... 18
Numerical increment            ... 5.000e-03 bohr
IR-spectrum generation         ... on
Raman-spectrum generation      ... off
Surface Crossing Hessian       ... off

The output will be reduced. Please look at the following files:
SCF program output             ... >HCN_150.lastscf
Integral program output        ... >HCN_150.lastint
Gradient program output        ... >HCN_150.lastgrad
Dipole moment program output   ... >HCN_150.lastmom
AutoCI program output          ... >HCN_150.lastautoci

	<< Calculating on displaced geometry   1 (of  18) >>
	<< Calculating on displaced geometry   5 (of  18) >>
	<< Calculating on displaced geometry   2 (of  18) >>
	<< Calculating on displaced geometry   3 (of  18) >>
	<< Calculating on displaced geometry   4 (of  18) >>
	<< Calculating on displaced geometry   6 (of  18) >>
	<< Calculating on displaced geometry   7 (of  18) >>
	<< Calculating on displaced geometry   9 (of  18) >>
	<< Calculating on displaced geometry   8 (of  18) >>
	<< Calculating on displaced geometry  10 (of  18) >>
	<< Calculating on displaced geometry  11 (of  18) >>
	<< Calculating on displaced geometry  12 (of  18) >>
	<< Calculating on displaced geometry  13 (of  18) >>
	<< Calculating on displaced geometry  14 (of  18) >>
	<< Calculating on displaced geometry  15 (of  18) >>
	<< Calculating on displaced geometry  17 (of  18) >>
	<< Calculating on displaced geometry  16 (of  18) >>
	<< Calculating on displaced geometry  18 (of  18) >>

-----------------------
VIBRATIONAL FREQUENCIES
-----------------------

Scaling factor for frequencies =  1.000000000 (already applied!)

   0:         0.00 cm**-1
   1:         0.00 cm**-1
   2:         0.00 cm**-1
   3:         0.00 cm**-1
   4:         0.00 cm**-1
   5:         0.00 cm**-1
   6:       627.51 cm**-1
   7:      2163.84 cm**-1
   8:      3532.47 cm**-1


------------
NORMAL MODES
------------

These modes are the cartesian displacements weighted by the diagonal matrix
M(i,i)=1/sqrt(m[i]) where m[i] is the mass of the displaced atom
Thus, these vectors are normalized but *not* orthogonal

                  0          1          2          3          4          5    
      0       0.000000   0.000000   0.000000   0.000000   0.000000   0.000000
      1       0.000000   0.000000   0.000000   0.000000   0.000000   0.000000
      2       0.000000   0.000000   0.000000   0.000000   0.000000   0.000000
      3       0.000000   0.000000   0.000000   0.000000   0.000000   0.000000
      4       0.000000   0.000000   0.000000   0.000000   0.000000   0.000000
      5       0.000000   0.000000   0.000000   0.000000   0.000000   0.000000
      6       0.000000   0.000000   0.000000   0.000000   0.000000   0.000000
      7       0.000000   0.000000   0.000000   0.000000   0.000000   0.000000
      8       0.000000   0.000000   0.000000   0.000000   0.000000   0.000000
                  6          7          8    
      0      -0.047948   0.402912   0.108476
      1       0.002403  -0.019921  -0.005372
      2      -0.142042  -0.249567  -0.018680
      3       0.041799  -0.398992  -0.021625
      4      -0.002081   0.019732   0.001069
      5       0.050812   0.221952   0.014299
      6      -0.009502   0.743357  -0.992066
      7       0.000285  -0.036819   0.049161
      8       0.986456  -0.110449   0.023890


-----------
IR SPECTRUM
-----------

 Mode   freq       eps      Int      T**2         TX        TY        TZ
       cm**-1   L/(mol*cm) km/mol    a.u.
----------------------------------------------------------------------------
  6:    627.51   0.013721   69.34  0.006824  (-0.027165  0.001330  0.078000)
  7:   2163.84   0.000678    3.43  0.000098  ( 0.005483 -0.000274  0.008224)
  8:   3532.47   0.014406   72.80  0.001273  (-0.035614  0.001777  0.001052)

* The epsilon (eps) is given for a Dirac delta lineshape.
** The dipole moment derivative (T) already includes vibrational overlap.

The first frequency considered to be a vibration is 6
The total number of vibrations considered is 3


--------------------------
THERMOCHEMISTRY AT 298.15K
--------------------------

Temperature         ... 298.15 K
Pressure            ... 1.00 atm
Total Mass          ... 27.03 AMU

Throughout the following assumptions are being made:
  (1) The electronic state is orbitally nondegenerate
  (2) There are no thermally accessible electronically excited states
  (3) Hindered rotations indicated by low frequency modes are not
      treated as such but are treated as vibrations and this may
      cause some error
  (4) All equations used are the standard statistical mechanics
      equations for an ideal gas
  (5) All vibrations are strictly harmonic

freq.     627.51  E(vib)   ...       0.09 
freq.    2163.84  E(vib)   ...       0.00 
freq.    3532.47  E(vib)   ...       0.00 

------------
INNER ENERGY
------------

The inner energy is: U= E(el) + E(ZPE) + E(vib) + E(rot) + E(trans)
    E(el)   - is the total energy from the electronic structure calculation
              = E(kin-el) + E(nuc-el) + E(el-el) + E(nuc-nuc)
    E(ZPE)  - the the zero temperature vibrational energy from the frequency calculation
    E(vib)  - the the finite temperature correction to E(ZPE) due to population
              of excited vibrational states
    E(rot)  - is the rotational thermal energy
    E(trans)- is the translational thermal energy

Summary of contributions to the inner energy U:
Electronic energy                ...    -93.33605669 Eh
Zero point energy                ...      0.01440672 Eh       9.04 kcal/mol
Thermal vibrational correction   ...      0.00014574 Eh       0.09 kcal/mol
Thermal rotational correction    ...      0.00141627 Eh       0.89 kcal/mol
Thermal translational correction ...      0.00141627 Eh       0.89 kcal/mol
-----------------------------------------------------------------------
Total thermal energy                    -93.31867169 Eh


Summary of corrections to the electronic energy:
(perhaps to be used in another calculation)
Total thermal correction                  0.00297828 Eh       1.87 kcal/mol
Non-thermal (ZPE) correction              0.01440672 Eh       9.04 kcal/mol
-----------------------------------------------------------------------
Total correction                          0.01738500 Eh      10.91 kcal/mol


--------
ENTHALPY
--------

The enthalpy is H = U + kB*T
                kB is Boltzmann's constant
Total free energy                 ...    -93.31867169 Eh 
Thermal Enthalpy correction       ...      0.00094421 Eh       0.59 kcal/mol
-----------------------------------------------------------------------
Total Enthalpy                    ...    -93.31772748 Eh


Note: Rotational entropy computed according to Herzberg 
Infrared and Raman Spectra, Chapter V,1, Van Nostrand Reinhold, 1945 
Point Group:  Cs, Symmetry Number:   1  
Rotational constants in cm-1:    79.100510     1.530145     1.501107 

Vibrational entropy computed according to the QRRHO of S. Grimme
Chem.Eur.J. 2012 18 9955


-------
ENTROPY
-------

The entropy contributions are T*S = T*(S(el)+S(vib)+S(rot)+S(trans))
     S(el)   - electronic entropy
     S(vib)  - vibrational entropy
     S(rot)  - rotational entropy
     S(trans)- translational entropy
The entropies will be listed as multiplied by the temperature to get
units of energy

Electronic entropy                ...      0.00000000 Eh      0.00 kcal/mol
Vibrational entropy               ...      0.00019280 Eh      0.12 kcal/mol
Rotational entropy                ...      0.00705486 Eh      4.43 kcal/mol
Translational entropy             ...      0.01701823 Eh     10.68 kcal/mol
-----------------------------------------------------------------------
Final entropy term                ...      0.02426589 Eh     15.23 kcal/mol

In case the symmetry of your molecule has not been determined correctly
or in case you have a reason to use a different symmetry number we print 
out the resulting rotational entropy values for sn=1,12 :
 --------------------------------------------------------
|  sn= 1 | S(rot)=       0.00705486 Eh      4.43 kcal/mol|
|  sn= 2 | S(rot)=       0.00640040 Eh      4.02 kcal/mol|
|  sn= 3 | S(rot)=       0.00601757 Eh      3.78 kcal/mol|
|  sn= 4 | S(rot)=       0.00574595 Eh      3.61 kcal/mol|
|  sn= 5 | S(rot)=       0.00553526 Eh      3.47 kcal/mol|
|  sn= 6 | S(rot)=       0.00536312 Eh      3.37 kcal/mol|
|  sn= 7 | S(rot)=       0.00521757 Eh      3.27 kcal/mol|
|  sn= 8 | S(rot)=       0.00509149 Eh      3.19 kcal/mol|
|  sn= 9 | S(rot)=       0.00498028 Eh      3.13 kcal/mol|
|  sn=10 | S(rot)=       0.00488080 Eh      3.06 kcal/mol|
|  sn=11 | S(rot)=       0.00479081 Eh      3.01 kcal/mol|
|  sn=12 | S(rot)=       0.00470866 Eh      2.95 kcal/mol|
 --------------------------------------------------------


-------------------
GIBBS FREE ENERGY
-------------------

The Gibbs free energy is G = H - T*S

Total enthalpy                    ...    -93.31772748 Eh 
Total entropy correction          ...     -0.02426589 Eh    -15.23 kcal/mol
-----------------------------------------------------------------------
Final Gibbs free energy         ...    -93.34199338 Eh

For completeness - the Gibbs free energy minus the electronic energy
G-E(el)                           ...     -0.00593669 Eh     -3.73 kcal/mol



Timings for individual modules:

Sum of individual times         ...       73.533 sec (=   1.226 min)
GTO integral calculation        ...        4.527 sec (=   0.075 min)   6.2 %
SCF iterations                  ...        7.253 sec (=   0.121 min)   9.9 %
EPR/NMR calculation             ...        2.298 sec (=   0.038 min)   3.1 %
SCF Gradient evaluation         ...        4.050 sec (=   0.067 min)   5.5 %
Numerical frequency calculation ...       55.405 sec (=   0.923 min)  75.3 %
                             ****ORCA TERMINATED NORMALLY****
TOTAL RUN TIME: 0 days 0 hours 1 minutes 6 seconds 866 msec
