
                                 *****************
                                 * O   R   C   A *
                                 *****************

                                            #,                                       
                                            ###                                      
                                            ####                                     
                                            #####                                    
                                            ######                                   
                                           ########,                                 
                                     ,,################,,,,,                         
                               ,,#################################,,                 
                          ,,##########################################,,             
                       ,#########################################, ''#####,          
                    ,#############################################,,   '####,        
                  ,##################################################,,,,####,       
                ,###########''''           ''''###############################       
              ,#####''   ,,,,##########,,,,          '''####'''          '####       
            ,##' ,,,,###########################,,,                        '##       
           ' ,,###''''                  '''############,,,                           
         ,,##''                                '''############,,,,        ,,,,,,###''
      ,#''                                            '''#######################'''  
     '                                                          ''''####''''         
             ,#######,   #######,   ,#######,      ##                                
            ,#'     '#,  ##    ##  ,#'     '#,    #''#        ######   ,####,        
            ##       ##  ##   ,#'  ##            #'  '#       #        #'  '#        
            ##       ##  #######   ##           ,######,      #####,   #    #        
            '#,     ,#'  ##    ##  '#,     ,#' ,#      #,         ##   #,  ,#        
             '#######'   ##     ##  '#######'  #'      '#     #####' # '####'        



                  #######################################################
                  #                        -***-                        #
                  #          Department of theory and spectroscopy      #
                  #    Directorship and core code : Frank Neese         #
                  #        Max Planck Institute fuer Kohlenforschung    #
                  #                Kaiser Wilhelm Platz 1               #
                  #                 D-45470 Muelheim/Ruhr               #
                  #                      Germany                        #
                  #                                                     #
                  #                  All rights reserved                #
                  #                        -***-                        #
                  #######################################################


                         Program Version 5.0.3 -  RELEASE  -


 With contributions from (in alphabetic order):
   Daniel Aravena         : Magnetic Suceptibility
   Michael Atanasov       : Ab Initio Ligand Field Theory (pilot matlab implementation)
   Alexander A. Auer      : GIAO ZORA, VPT2 properties, NMR spectrum
   Ute Becker             : Parallelization
   Giovanni Bistoni       : ED, misc. LED, open-shell LED, HFLD
   Martin Brehm           : Molecular dynamics
   Dmytro Bykov           : SCF Hessian
   Vijay G. Chilkuri      : MRCI spin determinant printing, contributions to CSF-ICE
   Dipayan Datta          : RHF DLPNO-CCSD density
   Achintya Kumar Dutta   : EOM-CC, STEOM-CC
   Dmitry Ganyushin       : Spin-Orbit,Spin-Spin,Magnetic field MRCI
   Miquel Garcia          : C-PCM and meta-GGA Hessian, CC/C-PCM, Gaussian charge scheme
   Yang Guo               : DLPNO-NEVPT2, F12-NEVPT2, CIM, IAO-localization
   Andreas Hansen         : Spin unrestricted coupled pair/coupled cluster methods
   Benjamin Helmich-Paris : MC-RPA, TRAH-SCF, COSX integrals
   Lee Huntington         : MR-EOM, pCC
   Robert Izsak           : Overlap fitted RIJCOSX, COSX-SCS-MP3, EOM
   Marcus Kettner         : VPT2
   Christian Kollmar      : KDIIS, OOCD, Brueckner-CCSD(T), CCSD density, CASPT2, CASPT2-K
   Simone Kossmann        : Meta GGA functionals, TD-DFT gradient, OOMP2, MP2 Hessian
   Martin Krupicka        : Initial AUTO-CI
   Lucas Lang             : DCDCAS
   Marvin Lechner         : AUTO-CI (C++ implementation), FIC-MRCC
   Dagmar Lenk            : GEPOL surface, SMD
   Dimitrios Liakos       : Extrapolation schemes; Compound Job, initial MDCI parallelization
   Dimitrios Manganas     : Further ROCIS development; embedding schemes
   Dimitrios Pantazis     : SARC Basis sets
   Anastasios Papadopoulos: AUTO-CI, single reference methods and gradients
   Taras Petrenko         : DFT Hessian,TD-DFT gradient, ASA, ECA, R-Raman, ABS, FL, XAS/XES, NRVS
   Peter Pinski           : DLPNO-MP2, DLPNO-MP2 Gradient
   Christoph Reimann      : Effective Core Potentials
   Marius Retegan         : Local ZFS, SOC
   Christoph Riplinger    : Optimizer, TS searches, QM/MM, DLPNO-CCSD(T), (RO)-DLPNO pert. Triples
   Tobias Risthaus        : Range-separated hybrids, TD-DFT gradient, RPA, STAB
   Michael Roemelt        : Original ROCIS implementation
   Masaaki Saitow         : Open-shell DLPNO-CCSD energy and density
   Barbara Sandhoefer     : DKH picture change effects
   Avijit Sen             : IP-ROCIS
   Kantharuban Sivalingam : CASSCF convergence, NEVPT2, FIC-MRCI
   Bernardo de Souza      : ESD, SOC TD-DFT
   Georgi Stoychev        : AutoAux, RI-MP2 NMR, DLPNO-MP2 response
   Willem Van den Heuvel  : Paramagnetic NMR
   Boris Wezisla          : Elementary symmetry handling
   Frank Wennmohs         : Technical directorship


 We gratefully acknowledge several colleagues who have allowed us to
 interface, adapt or use parts of their codes:
   Stefan Grimme, W. Hujo, H. Kruse, P. Pracht,  : VdW corrections, initial TS optimization,
                  C. Bannwarth, S. Ehlert          DFT functionals, gCP, sTDA/sTD-DF
   Ed Valeev, F. Pavosevic, A. Kumar             : LibInt (2-el integral package), F12 methods
   Garnet Chan, S. Sharma, J. Yang, R. Olivares  : DMRG
   Ulf Ekstrom                                   : XCFun DFT Library
   Mihaly Kallay                                 : mrcc  (arbitrary order and MRCC methods)
   Jiri Pittner, Ondrej Demel                    : Mk-CCSD
   Frank Weinhold                                : gennbo (NPA and NBO analysis)
   Christopher J. Cramer and Donald G. Truhlar   : smd solvation model
   Lars Goerigk                                  : TD-DFT with DH, B97 family of functionals
   V. Asgeirsson, H. Jonsson                     : NEB implementation
   FAccTs GmbH                                   : IRC, NEB, NEB-TS, DLPNO-Multilevel, CI-OPT
                                                   MM, QMMM, 2- and 3-layer-ONIOM, Crystal-QMMM,
                                                   LR-CPCM, SF, NACMEs, symmetry and pop. for TD-DFT,
                                                   nearIR, NL-DFT gradient (VV10), updates on ESD,
                                                   ML-optimized integration grids
   S Lehtola, MJT Oliveira, MAL Marques          : LibXC Library
   Liviu Ungur et al                             : ANISO software


 Your calculation uses the libint2 library for the computation of 2-el integrals
 For citations please refer to: http://libint.valeyev.net

 Your ORCA version has been built with support for libXC version: 5.1.0
 For citations please refer to: https://tddft.org/programs/libxc/

 This ORCA versions uses:
   CBLAS   interface :  Fast vector & matrix operations
   LAPACKE interface :  Fast linear algebra routines
   Shared memory     :  Shared parallel matrices


SCAN-COORDS
================================================================================

----- Orbital basis set information -----
Your calculation utilizes the basis: def2-TZVP
   F. Weigend and R. Ahlrichs, Phys. Chem. Chem. Phys. 7, 3297 (2005).

----- AuxJ basis set information -----
Your calculation utilizes the auxiliary basis: def2/J
   F. Weigend, Phys. Chem. Chem. Phys. 8, 1057 (2006).

================================================================================
                                        WARNINGS
                       Please study these warnings very carefully!
================================================================================

WARNING: Gradients needed for Numerical Frequencies
  ===> : Setting RunTyp to EnGrad

WARNING: The environment variable RSH_COMMAND is not set!
  ===> : All Displacements for the Numerical Hessian or Gradient calculation
         will be started on localhost

INFO   : the flag for use of the SHARK integral package has been found!

================================================================================
                                       INPUT FILE
================================================================================
NAME = HCN_105.inp
|  1> ! PAL5 PBE0 Numfreq
|  2> %method
|  3>         method DFT
|  4>         runtyp Energy
|  5> end
|  6> %basis
|  7>         basis "def2-TZVP"
|  8> end
|  9> %coords
| 10>         CTyp xyz
| 11>         Charge 0
| 12>         Mult 1
| 13>         Units Angs
| 14>         coords
| 15> 	#105
| 16> 	C     -1.011290    0.960957    0.000001
| 17> 	N     -0.708861    0.946003   -1.116832
| 18> 	H     -2.068270    1.013340    0.000003
| 19> 	end
| 20> end
| 21> %eprnmr
| 22>         NMRShielding 1
| 23>         Nuclei = all N {shift}
| 24>         Nuclei = all C {shift}
| 25>         Nuclei = all H {shift}
| 26> endd                         ****END OF INPUT****
================================================================================

                     *******************************
                     * Energy+Gradient Calculation *
                     *******************************

---------------------------------
CARTESIAN COORDINATES (ANGSTROEM)
---------------------------------
  C     -1.011290    0.960957    0.000001
  N     -0.708861    0.946003   -1.116832
  H     -2.068270    1.013340    0.000003

----------------------------
CARTESIAN COORDINATES (A.U.)
----------------------------
  NO LB      ZA    FRAG     MASS         X           Y           Z
   0 C     6.0000    0    12.011   -1.911061    1.815946    0.000002
   1 N     7.0000    0    14.007   -1.339553    1.787687   -2.110507
   2 H     1.0000    0     1.008   -3.908464    1.914935    0.000006

--------------------------------
INTERNAL COORDINATES (ANGSTROEM)
--------------------------------
 C      0   0   0     0.000000000000     0.00000000     0.00000000
 N      1   0   0     1.157152916449     0.00000000     0.00000000
 H      1   2   0     1.058277231680   105.16960753     0.00000000

---------------------------
INTERNAL COORDINATES (A.U.)
---------------------------
 C      0   0   0     0.000000000000     0.00000000     0.00000000
 N      1   0   0     2.186702107157     0.00000000     0.00000000
 H      1   2   0     1.999854141640   105.16960753     0.00000000

---------------------
BASIS SET INFORMATION
---------------------
There are 3 groups of distinct atoms

 Group   1 Type C   : 11s6p2d1f contracted to 5s3p2d1f pattern {62111/411/11/1}
 Group   2 Type N   : 11s6p2d1f contracted to 5s3p2d1f pattern {62111/411/11/1}
 Group   3 Type H   : 5s1p contracted to 3s1p pattern {311/1}

Atom   0C    basis set group =>   1
Atom   1N    basis set group =>   2
Atom   2H    basis set group =>   3
---------------------------------
AUXILIARY/J BASIS SET INFORMATION
---------------------------------
There are 3 groups of distinct atoms

 Group   1 Type C   : 12s5p4d2f1g contracted to 6s4p3d1f1g pattern {711111/2111/211/2/1}
 Group   2 Type N   : 12s5p4d2f1g contracted to 6s4p3d1f1g pattern {711111/2111/211/2/1}
 Group   3 Type H   : 5s2p1d contracted to 3s1p1d pattern {311/2/1}

Atom   0C    basis set group =>   1
Atom   1N    basis set group =>   2
Atom   2H    basis set group =>   3


           ************************************************************
           *        Program running with 5 parallel MPI-processes     *
           *              working on a common directory               *
           ************************************************************
------------------------------------------------------------------------------
                           ORCA GTO INTEGRAL CALCULATION
                           -- RI-GTO INTEGRALS CHOSEN --
------------------------------------------------------------------------------
------------------------------------------------------------------------------
                   ___                                                        
                  /   \      - P O W E R E D   B Y -                         
                 /     \                                                     
                 |  |  |   _    _      __       _____    __    __             
                 |  |  |  | |  | |    /  \     |  _  \  |  |  /  |          
                  \  \/   | |  | |   /    \    | | | |  |  | /  /          
                 / \  \   | |__| |  /  /\  \   | |_| |  |  |/  /          
                |  |  |   |  __  | /  /__\  \  |    /   |      \           
                |  |  |   | |  | | |   __   |  |    \   |  |\   \          
                \     /   | |  | | |  |  |  |  | |\  \  |  | \   \       
                 \___/    |_|  |_| |__|  |__|  |_| \__\ |__|  \__/        
                                                                              
                      - O R C A' S   B I G   F R I E N D -                    
                                      &                                       
                       - I N T E G R A L  F E E D E R -                       
                                                                              
 v1 FN, 2020, v2 2021                                                         
------------------------------------------------------------------------------


Reading SHARK input file HCN_105.SHARKINP.tmp ... ok
----------------------
SHARK INTEGRAL PACKAGE
----------------------

Number of atoms                             ...      3
Number of basis functions                   ...     68
Number of shells                            ...     26
Maximum angular momentum                    ...      3
Integral batch strategy                     ... SHARK/LIBINT Hybrid
RI-J (if used) integral strategy            ... SPLIT-RIJ (Revised 2003 algorithm where possible)
Printlevel                                  ...      1
Contraction scheme used                     ... SEGMENTED contraction
Coulomb Range Separation                    ... NOT USED
Exchange Range Separation                   ... NOT USED
Finite Nucleus Model                        ... NOT USED
Auxiliary Coulomb fitting basis             ... AVAILABLE
   # of basis functions in Aux-J            ...    109
   # of shells in Aux-J                     ...     35
   Maximum angular momentum in Aux-J        ...      4
Auxiliary J/K fitting basis                 ... NOT available
Auxiliary Correlation fitting basis         ... NOT available
Auxiliary 'external' fitting basis          ... NOT available
Integral threshold                          ...     2.500000e-11
Primitive cut-off                           ...     2.500000e-12
Primitive pair pre-selection threshold      ...     2.500000e-12

Calculating pre-screening integrals         ... done (  0.0 sec) Dimension = 26
Organizing shell pair data                  ... done (  0.0 sec)
Shell pair information
Total number of shell pairs                 ...       351
Shell pairs after pre-screening             ...       350
Total number of primitive shell pairs       ...      1128
Primitive shell pairs kept                  ...      1032
          la=0 lb=0:     90 shell pairs
          la=1 lb=0:     91 shell pairs
          la=1 lb=1:     28 shell pairs
          la=2 lb=0:     52 shell pairs
          la=2 lb=1:     28 shell pairs
          la=2 lb=2:     10 shell pairs
          la=3 lb=0:     26 shell pairs
          la=3 lb=1:     14 shell pairs
          la=3 lb=2:      8 shell pairs
          la=3 lb=3:      3 shell pairs

Calculating one electron integrals          ... done (  0.0 sec)
Calculating RI/J V-Matrix + Cholesky decomp.... done (  0.0 sec)
Calculating Nuclear repulsion               ... done (  0.0 sec) ENN=     24.311143527529 Eh

SHARK setup successfully completed in   0.1 seconds

Maximum memory used throughout the entire GTOINT-calculation: 14.0 MB


           ************************************************************
           *        Program running with 5 parallel MPI-processes     *
           *              working on a common directory               *
           ************************************************************
-------------------------------------------------------------------------------
                                 ORCA SCF
-------------------------------------------------------------------------------

------------
SCF SETTINGS
------------
Hamiltonian:
 Density Functional     Method          .... DFT(GTOs)
 Exchange Functional    Exchange        .... PBE
   PBE kappa parameter   XKappa         ....  0.804000
   PBE mue parameter    XMuePBE         ....  0.219520
 Correlation Functional Correlation     .... PBE
   PBE beta parameter  CBetaPBE         ....  0.066725
 LDA part of GGA corr.  LDAOpt          .... PW91-LDA
 Gradients option       PostSCFGGA      .... off
 Hybrid DFT is turned on
   Fraction HF Exchange ScalHFX         ....  0.250000
   Scaling of DF-GGA-X  ScalDFX         ....  0.750000
   Scaling of DF-GGA-C  ScalDFC         ....  1.000000
   Scaling of DF-LDA-C  ScalLDAC        ....  1.000000
   Perturbative correction              ....  0.000000
   Density functional embedding theory  .... OFF
   NL short-range parameter             ....  6.900000
 RI-approximation to the Coulomb term is turned on
   Number of AuxJ basis functions       .... 109
   RIJ-COSX (HFX calculated with COS-X)).... on


General Settings:
 Integral files         IntName         .... HCN_105
 Hartree-Fock type      HFTyp           .... RHF
 Total Charge           Charge          ....    0
 Multiplicity           Mult            ....    1
 Number of Electrons    NEL             ....   14
 Basis Dimension        Dim             ....   68
 Nuclear Repulsion      ENuc            ....     24.3111435275 Eh

Convergence Acceleration:
 DIIS                   CNVDIIS         .... on
   Start iteration      DIISMaxIt       ....    12
   Startup error        DIISStart       ....  0.200000
   # of expansion vecs  DIISMaxEq       ....     5
   Bias factor          DIISBfac        ....   1.050
   Max. coefficient     DIISMaxC        ....  10.000
 Trust-Rad. Augm. Hess. CNVTRAH         .... auto
   Auto Start mean grad. ratio tolernc. ....  1.125000
   Auto Start start iteration           ....    20
   Auto Start num. interpolation iter.  ....    10
   Max. Number of Micro iterations      ....    16
   Max. Number of Macro iterations      .... Maxiter - #DIIS iter
   Number of Davidson start vectors     ....     2
   Converg. threshold I  (grad. norm)   ....   1.000e-05
   Converg. threshold II (energy diff.) ....   1.000e-08
   Grad. Scal. Fac. for Micro threshold ....   0.100
   Minimum threshold for Micro iter.    ....   0.010
   NR start threshold (gradient norm)   ....   0.001
   Initial trust radius                 ....   0.400
   Minimum AH scaling param. (alpha)    ....   1.000
   Maximum AH scaling param. (alpha)    .... 1000.000
   Orbital update algorithm             .... Taylor
   White noise on init. David. guess    .... on
   Maximum white noise                  ....   0.010
   Quad. conv. algorithm                .... NR
 SOSCF                  CNVSOSCF        .... on
   Start iteration      SOSCFMaxIt      ....   150
   Startup grad/error   SOSCFStart      ....  0.003300
 Level Shifting         CNVShift        .... on
   Level shift para.    LevelShift      ....    0.2500
   Turn off err/grad.   ShiftErr        ....    0.0010
 Zerner damping         CNVZerner       .... off
 Static damping         CNVDamp         .... on
   Fraction old density DampFac         ....    0.7000
   Max. Damping (<1)    DampMax         ....    0.9800
   Min. Damping (>=0)   DampMin         ....    0.0000
   Turn off err/grad.   DampErr         ....    0.1000
 Fernandez-Rico         CNVRico         .... off

SCF Procedure:
 Maximum # iterations   MaxIter         ....   125
 SCF integral mode      SCFMode         .... Direct
   Integral package                     .... SHARK and LIBINT hybrid scheme
 Reset frequency        DirectResetFreq ....    20
 Integral Threshold     Thresh          ....  2.500e-11 Eh
 Primitive CutOff       TCut            ....  2.500e-12 Eh

Convergence Tolerance:
 Convergence Check Mode ConvCheckMode   .... Total+1el-Energy
 Convergence forced     ConvForced      .... 0
 Energy Change          TolE            ....  1.000e-08 Eh
 1-El. energy change                    ....  1.000e-05 Eh
 Orbital Gradient       TolG            ....  1.000e-05
 Orbital Rotation angle TolX            ....  1.000e-05
 DIIS Error             TolErr          ....  5.000e-07


Diagonalization of the overlap matrix:
Smallest eigenvalue                        ... 6.572e-04
Time for diagonalization                   ...    0.001 sec
Threshold for overlap eigenvalues          ... 1.000e-08
Number of eigenvalues below threshold      ... 0
Time for construction of square roots      ...    0.005 sec
Total time needed                          ...    0.006 sec

Time for model grid setup =    0.016 sec

------------------------------
INITIAL GUESS: MODEL POTENTIAL
------------------------------
Loading Hartree-Fock densities                     ... done
Calculating cut-offs                               ... done
Initializing the effective Hamiltonian             ... done
Setting up the integral package (SHARK)            ... done
Starting the Coulomb interaction                   ... done (   0.0 sec)
Reading the grid                                   ... done
Mapping shells                                     ... done
Starting the XC term evaluation                    ... done (   0.0 sec)
  promolecular density results
     # of electrons  =     13.999926376
     EX              =    -11.849523229
     EC              =     -0.434651180
     EX+EC           =    -12.284174409
Transforming the Hamiltonian                       ... done (   0.0 sec)
Diagonalizing the Hamiltonian                      ... done (   0.0 sec)
Back transforming the eigenvectors                 ... done (   0.0 sec)
Now organizing SCF variables                       ... done
                      ------------------
                      INITIAL GUESS DONE (   0.0 sec)
                      ------------------
-------------------
DFT GRID GENERATION
-------------------

General Integration Accuracy     IntAcc      ... 4.388
Radial Grid Type                 RadialGrid  ... OptM3 with GC (2021)
Angular Grid (max. ang.)         AngularGrid ... 4 (Lebedev-302)
Angular grid pruning method      GridPruning ... 4 (adaptive)
Weight generation scheme         WeightScheme... Becke
Basis function cutoff            BFCut       ... 1.0000e-11
Integration weight cutoff        WCut        ... 1.0000e-14
Angular grids for H and He will be reduced by one unit
Partially contracted basis set               ... off
Rotationally invariant grid construction     ... off

Total number of grid points                  ...    15548
Total number of batches                      ...      245
Average number of points per batch           ...       63
Average number of grid points per atom       ...     5183
Time for grid setup =    0.058 sec

--------------------
COSX GRID GENERATION
--------------------

GRIDX 1
-------
General Integration Accuracy     IntAcc      ... 3.816
Radial Grid Type                 RadialGrid  ... OptM3 with GC (2021)
Angular Grid (max. ang.)         AngularGrid ... 1 (Lebedev-50)
Angular grid pruning method      GridPruning ... 4 (adaptive)
Weight generation scheme         WeightScheme... Becke
Basis function cutoff            BFCut       ... 1.0000e-11
Integration weight cutoff        WCut        ... 1.0000e-14
Angular grids for H and He will be reduced by one unit
Partially contracted basis set               ... on
Rotationally invariant grid construction     ... off

Total number of grid points                  ...     1975
Total number of batches                      ...       33
Average number of points per batch           ...       59
Average number of grid points per atom       ...      658
UseSFitting                                  ... on

GRIDX 2
-------
General Integration Accuracy     IntAcc      ... 4.020
Radial Grid Type                 RadialGrid  ... OptM3 with GC (2021)
Angular Grid (max. ang.)         AngularGrid ... 2 (Lebedev-110)
Angular grid pruning method      GridPruning ... 4 (adaptive)
Weight generation scheme         WeightScheme... Becke
Basis function cutoff            BFCut       ... 1.0000e-11
Integration weight cutoff        WCut        ... 1.0000e-14
Angular grids for H and He will be reduced by one unit
Partially contracted basis set               ... on
Rotationally invariant grid construction     ... off

Total number of grid points                  ...     4572
Total number of batches                      ...       73
Average number of points per batch           ...       62
Average number of grid points per atom       ...     1524
UseSFitting                                  ... on

GRIDX 3
-------
General Integration Accuracy     IntAcc      ... 4.338
Radial Grid Type                 RadialGrid  ... OptM3 with GC (2021)
Angular Grid (max. ang.)         AngularGrid ... 3 (Lebedev-194)
Angular grid pruning method      GridPruning ... 4 (adaptive)
Weight generation scheme         WeightScheme... Becke
Basis function cutoff            BFCut       ... 1.0000e-11
Integration weight cutoff        WCut        ... 1.0000e-14
Angular grids for H and He will be reduced by one unit
Partially contracted basis set               ... on
Rotationally invariant grid construction     ... off

Total number of grid points                  ...    10182
Total number of batches                      ...      160
Average number of points per batch           ...       63
Average number of grid points per atom       ...     3394
UseSFitting                                  ... on

Time for X-Grid setup             =    0.099 sec

--------------
SCF ITERATIONS
--------------
ITER       Energy         Delta-E        Max-DP      RMS-DP      [F,P]     Damp
               ***  Starting incremental Fock matrix formation  ***
  0    -93.2322756753   0.000000000000 0.03303917  0.00168906  0.2104717 0.7000
  1    -93.2615724977  -0.029296822350 0.02058007  0.00109550  0.0792040 0.7000
                               ***Turning on DIIS***
  2    -93.2715059871  -0.009933489447 0.03599641  0.00174312  0.0413525 0.0000
  3    -93.2898852261  -0.018379238908 0.01631167  0.00089623  0.0457507 0.0000
  4    -93.2923823352  -0.002497109108 0.00687865  0.00038176  0.0250920 0.0000
  5    -93.2931534570  -0.000771121883 0.00172349  0.00009477  0.0035391 0.0000
                      *** Initiating the SOSCF procedure ***
                           *** Shutting down DIIS ***
                      *** Re-Reading the Fockian *** 
                      *** Removing any level shift *** 
ITER      Energy       Delta-E        Grad      Rot      Max-DP    RMS-DP
  6    -93.29317515  -0.0000216975  0.000314  0.000314  0.000604  0.000029
               *** Restarting incremental Fock matrix formation ***
  7    -93.29315927   0.0000158850  0.000171  0.000586  0.000323  0.000016
  8    -93.29315930  -0.0000000276  0.000265  0.000363  0.000205  0.000010
  9    -93.29315953  -0.0000002377  0.000062  0.000107  0.000081  0.000006
 10    -93.29315956  -0.0000000299  0.000015  0.000021  0.000019  0.000001
 11    -93.29315957  -0.0000000029  0.000004  0.000010  0.000008  0.000001
                 **** Energy Check signals convergence ****
              ***Rediagonalizing the Fockian in SOSCF/NRSCF***

               *****************************************************
               *                     SUCCESS                       *
               *           SCF CONVERGED AFTER  12 CYCLES          *
               *****************************************************

Old exchange energy                            =     -3.008038359 Eh
New exchange energy                            =     -3.008030988 Eh
Exchange energy change after final integration =      0.000007371 Eh
Total energy after final integration           =    -93.293152197 Eh
Final COS-X integration done in                =     0.117 sec

----------------
TOTAL SCF ENERGY
----------------

Total Energy       :          -93.29315220 Eh           -2538.63573 eV

Components:
Nuclear Repulsion  :           24.31114353 Eh             661.53985 eV
Electronic Energy  :         -117.60429572 Eh           -3200.17558 eV
One Electron Energy:         -173.47613517 Eh           -4720.52562 eV
Two Electron Energy:           55.87183945 Eh            1520.35004 eV
Max COSX asymmetry :            0.00000073 Eh               0.00002 eV

Virial components:
Potential Energy   :         -186.32475627 Eh           -5070.15438 eV
Kinetic Energy     :           93.03160408 Eh            2531.51865 eV
Virial Ratio       :            2.00281139


DFT components:
N(Alpha)           :        7.000001406793 electrons
N(Beta)            :        7.000001406793 electrons
N(Total)           :       14.000002813585 electrons
E(X)               :       -9.032869792202 Eh       
E(C)               :       -0.441630984097 Eh       
E(XC)              :       -9.474500776299 Eh       
DFET-embed. en.    :        0.000000000000 Eh       

---------------
SCF CONVERGENCE
---------------

  Last Energy change         ...   -3.0387e-10  Tolerance :   1.0000e-08
  Last MAX-Density change    ...    8.8818e-16  Tolerance :   1.0000e-07
  Last RMS-Density change    ...    2.3464e-17  Tolerance :   5.0000e-09
  Last Orbital Gradient      ...    8.6593e-07  Tolerance :   1.0000e-05
  Last Orbital Rotation      ...    3.2325e-06  Tolerance :   1.0000e-05

             **** THE GBW FILE WAS UPDATED (HCN_105.gbw) ****
             **** DENSITY HCN_105.scfp WAS UPDATED ****
             **** ENERGY FILE WAS UPDATED (HCN_105.en.tmp) ****
             **** THE GBW FILE WAS UPDATED (HCN_105.gbw) ****
             **** DENSITY HCN_105.scfp WAS UPDATED ****
----------------
ORBITAL ENERGIES
----------------

  NO   OCC          E(Eh)            E(eV) 
   0   2.0000     -14.433685      -392.7605 
   1   2.0000     -10.270943      -279.4866 
   2   2.0000      -0.981732       -26.7143 
   3   2.0000      -0.588636       -16.0176 
   4   2.0000      -0.435570       -11.8525 
   5   2.0000      -0.395672       -10.7668 
   6   2.0000      -0.372569       -10.1381 
   7   0.0000      -0.080754        -2.1974 
   8   0.0000       0.009768         0.2658 
   9   0.0000       0.088012         2.3949 
  10   0.0000       0.143103         3.8940 
  11   0.0000       0.207748         5.6531 
  12   0.0000       0.227930         6.2023 
  13   0.0000       0.241138         6.5617 
  14   0.0000       0.327673         8.9164 
  15   0.0000       0.396677        10.7941 
  16   0.0000       0.431036        11.7291 
  17   0.0000       0.488683        13.2978 
  18   0.0000       0.554744        15.0953 
  19   0.0000       0.594227        16.1697 
  20   0.0000       0.633685        17.2434 
  21   0.0000       0.770260        20.9598 
  22   0.0000       0.838673        22.8215 
  23   0.0000       0.854835        23.2612 
  24   0.0000       1.150532        31.3076 
  25   0.0000       1.152368        31.3575 
  26   0.0000       1.190324        32.3904 
  27   0.0000       1.253255        34.1028 
  28   0.0000       1.330114        36.1942 
  29   0.0000       1.399254        38.0756 
  30   0.0000       1.495448        40.6932 
  31   0.0000       1.506633        40.9976 
  32   0.0000       1.530361        41.6433 
  33   0.0000       1.804010        49.0896 
  34   0.0000       1.831565        49.8394 
  35   0.0000       1.990760        54.1713 
  36   0.0000       2.119933        57.6863 
  37   0.0000       2.129052        57.9345 
  38   0.0000       2.214630        60.2631 
  39   0.0000       2.277632        61.9775 
  40   0.0000       2.516143        68.4677 
  41   0.0000       2.715359        73.8887 
  42   0.0000       2.896778        78.8253 
  43   0.0000       2.911133        79.2159 
  44   0.0000       2.926561        79.6358 
  45   0.0000       2.990093        81.3646 
  46   0.0000       3.091764        84.1312 
  47   0.0000       3.101225        84.3886 
  48   0.0000       3.153581        85.8133 
  49   0.0000       3.329297        90.5948 
  50   0.0000       3.375232        91.8447 
  51   0.0000       3.439934        93.6054 
  52   0.0000       3.899683       106.1158 
  53   0.0000       3.962700       107.8305 
  54   0.0000       3.968289       107.9826 
  55   0.0000       4.162124       113.2572 
  56   0.0000       4.419437       120.2590 
  57   0.0000       4.531380       123.3051 
  58   0.0000       4.574171       124.4695 
  59   0.0000       4.625653       125.8704 
  60   0.0000       4.858299       132.2010 
  61   0.0000       4.948713       134.6613 
  62   0.0000       5.322526       144.8333 
  63   0.0000       5.414933       147.3478 
  64   0.0000       5.521662       150.2521 
  65   0.0000       5.725142       155.7890 
  66   0.0000      22.197464       604.0237 
  67   0.0000      31.893049       867.8540 

                    ********************************
                    * MULLIKEN POPULATION ANALYSIS *
                    ********************************

-----------------------
MULLIKEN ATOMIC CHARGES
-----------------------
   0 C :   -0.232948
   1 N :    0.012424
   2 H :    0.220523
Sum of atomic charges:   -0.0000000

--------------------------------
MULLIKEN REDUCED ORBITAL CHARGES
--------------------------------
  0 C s       :     3.433805  s :     3.433805
      pz      :     1.009603  p :     2.706526
      px      :     0.872136
      py      :     0.824788
      dz2     :     0.028682  d :     0.085042
      dxz     :     0.022273
      dyz     :     0.028726
      dx2y2   :     0.005799
      dxy     :    -0.000438
      f0      :     0.001762  f :     0.007573
      f+1     :     0.001547
      f-1     :     0.002975
      f+2     :     0.000185
      f-2     :     0.000432
      f+3     :     0.000513
      f-3     :     0.000159
  1 N s       :     3.721210  s :     3.721210
      pz      :     1.226463  p :     3.218635
      px      :     0.872900
      py      :     1.119273
      dz2     :     0.011251  d :     0.045481
      dxz     :     0.014356
      dyz     :     0.016172
      dx2y2   :     0.002255
      dxy     :     0.001447
      f0      :     0.000416  f :     0.002250
      f+1     :     0.000551
      f-1     :     0.000899
      f+2     :     0.000199
      f-2     :     0.000128
      f+3     :     0.000033
      f-3     :     0.000022
  2 H s       :     0.751666  s :     0.751666
      pz      :     0.007903  p :     0.027811
      px      :     0.014907
      py      :     0.005001


                     *******************************
                     * LOEWDIN POPULATION ANALYSIS *
                     *******************************

----------------------
LOEWDIN ATOMIC CHARGES
----------------------
   0 C :   -0.269387
   1 N :    0.102280
   2 H :    0.167107

-------------------------------
LOEWDIN REDUCED ORBITAL CHARGES
-------------------------------
  0 C s       :     3.056928  s :     3.056928
      pz      :     1.193751  p :     2.923095
      px      :     0.917150
      py      :     0.812195
      dz2     :     0.115605  d :     0.241542
      dxz     :     0.053143
      dyz     :     0.056582
      dx2y2   :     0.013507
      dxy     :     0.002705
      f0      :     0.016499  f :     0.047821
      f+1     :     0.009918
      f-1     :     0.014541
      f+2     :     0.001755
      f-2     :     0.002635
      f+3     :     0.002361
      f-3     :     0.000111
  1 N s       :     3.340877  s :     3.340877
      pz      :     1.497512  p :     3.425393
      px      :     0.862405
      py      :     1.065476
      dz2     :     0.047859  d :     0.116055
      dxz     :     0.036175
      dyz     :     0.025545
      dx2y2   :     0.004096
      dxy     :     0.002379
      f0      :     0.006225  f :     0.015396
      f+1     :     0.004415
      f-1     :     0.003070
      f+2     :     0.000964
      f-2     :     0.000622
      f+3     :     0.000061
      f-3     :     0.000038
  2 H s       :     0.755050  s :     0.755050
      pz      :     0.022945  p :     0.077844
      px      :     0.040794
      py      :     0.014104


                      *****************************
                      * MAYER POPULATION ANALYSIS *
                      *****************************

  NA   - Mulliken gross atomic population
  ZA   - Total nuclear charge
  QA   - Mulliken gross atomic charge
  VA   - Mayer's total valence
  BVA  - Mayer's bonded valence
  FA   - Mayer's free valence

  ATOM       NA         ZA         QA         VA         BVA        FA
  0 C      6.2329     6.0000    -0.2329     3.6879     3.6879    -0.0000
  1 N      6.9876     7.0000     0.0124     2.8993     2.8993    -0.0000
  2 H      0.7795     1.0000     0.2205     0.9696     0.9696    -0.0000

  Mayer bond orders larger than 0.100000
B(  0-C ,  1-N ) :   2.8088 B(  0-C ,  2-H ) :   0.8791 

-------
TIMINGS
-------

Total SCF time: 0 days 0 hours 0 min 2 sec 

Total time                  ....       2.140 sec
Sum of individual times     ....       1.985 sec  ( 92.8%)

Fock matrix formation       ....       1.703 sec  ( 79.6%)
  Split-RI-J                ....       0.159 sec  (  9.3% of F)
  Chain of spheres X        ....       0.920 sec  ( 54.0% of F)
  XC integration            ....       0.344 sec  ( 20.2% of F)
    Basis function eval.    ....       0.058 sec  ( 16.9% of XC)
    Density eval.           ....       0.037 sec  ( 10.8% of XC)
    XC-Functional eval.     ....       0.009 sec  (  2.6% of XC)
    XC-Potential eval.      ....       0.046 sec  ( 13.4% of XC)
Diagonalization             ....       0.030 sec  (  1.4%)
Density matrix formation    ....       0.000 sec  (  0.0%)
Population analysis         ....       0.012 sec  (  0.6%)
Initial guess               ....       0.023 sec  (  1.1%)
Orbital Transformation      ....       0.000 sec  (  0.0%)
Orbital Orthonormalization  ....       0.000 sec  (  0.0%)
DIIS solution               ....       0.021 sec  (  1.0%)
SOSCF solution              ....       0.023 sec  (  1.1%)
Grid generation             ....       0.173 sec  (  8.1%)

Maximum memory used throughout the entire SCF-calculation: 58.4 MB

-------------------------   --------------------
FINAL SINGLE POINT ENERGY       -93.293152196968
-------------------------   --------------------



           ************************************************************
           *        Program running with 5 parallel MPI-processes     *
           *              working on a common directory               *
           ************************************************************
------------------------------------------------------------------------------
                         ORCA SCF GRADIENT CALCULATION
------------------------------------------------------------------------------

 ... reading COSX grid (gridx3)
Gradient of the Kohn-Sham DFT energy:
Kohn-Sham wavefunction type      ... RKS
Hartree-Fock exchange scaling    ...    0.250
Number of operators              ...    1
Number of atoms                  ...    3
Basis set dimensions             ...   68
Integral neglect threshold       ... 2.5e-11
Integral primitive cutoff        ... 2.5e-12
SHARK Integral package           ... ON

Nuc. rep. gradient       (SHARK) ... done (  0.0 sec)
HCore & Overlap gradient (SHARK) ... done (  0.0 sec)
RI-J gradient            (SHARK) ... done (  0.0 sec)
COSX-gradient                    ... done (  0.1 sec)
Exchange-correlation gradient    ... done

------------------
CARTESIAN GRADIENT
------------------

   1   C   :    0.004890570   -0.000256034    0.022093015
   2   N   :   -0.035593266    0.001773614    0.011975359
   3   H   :    0.030694777   -0.001517559   -0.034143290

Difference to translation invariance:
           :   -0.0000079196    0.0000000207   -0.0000749168

Difference to rotation invariance:
           :   -0.0001110510   -0.0000650772    0.0000148627

Norm of the cartesian gradient     ...    0.0635276055
RMS gradient                       ...    0.0211758685
MAX gradient                       ...    0.0355932664

-------
TIMINGS
-------

Total SCF gradient time            ...        0.353 sec

One electron gradient       ....       0.003 sec  (  0.8%)
RI-J Coulomb gradient       ....       0.048 sec  ( 13.6%)
COSX gradient               ....       0.131 sec  ( 37.1%)
XC gradient                 ....       0.053 sec  ( 15.0%)

Maximum memory used throughout the entire SCFGRAD-calculation: 33.5 MB

                            ***************************************
                            *     ORCA property calculations      *
                            ***************************************

                                    ---------------------
                                    Active property flags
                                    ---------------------
   (+) Dipole Moment
   (+) Chemical Shifts
   (+) Nuclear properties (Hyperfine,Quadrupole)


------------------------------------------------------------------------------
                       ORCA ELECTRIC PROPERTIES CALCULATION
------------------------------------------------------------------------------

Dipole Moment Calculation                       ... on
Quadrupole Moment Calculation                   ... off
Polarizability Calculation                      ... off
GBWName                                         ... HCN_105.gbw
Electron density                                ... HCN_105.scfp
The origin for moment calculation is the CENTER OF MASS  = (-1.689359,  1.804992 -1.093830)

-------------
DIPOLE MOMENT
-------------
                                X             Y             Z
Electronic contribution:      0.49490      -0.02453      -0.12511
Nuclear contribution   :     -1.10068       0.05453       0.54008
                        -----------------------------------------
Total Dipole Moment    :     -0.60578       0.03000       0.41497
                        -----------------------------------------
Magnitude (a.u.)       :      0.73490
Magnitude (Debye)      :      1.86796



--------------------
Rotational spectrum 
--------------------
 
Rotational constants in cm-1:    18.342173     1.767523     1.612168 
Rotational constants in MHz : 549884.510503 52989.000753 48331.582326 

 Dipole components along the rotational axes: 
x,y,z [a.u.] :     0.605803     0.416023     0.000006 
x,y,z [Debye]:     1.539829     1.057446     0.000016 

 


           ************************************************************
           *        Program running with 5 parallel MPI-processes     *
           *              working on a common directory               *
           ************************************************************
------------------------------------------------------------------------------
                                ORCA EPR/NMR CALCULATION
------------------------------------------------------------------------------

GBWName                      ... HCN_105.gbw
Electron density             ... HCN_105.scfp
Spin density                 ... HCN_105.scfr
Treatment of gauge           ... GIAO (approximations 1/2el = 0,0)
Details of the CP(SCF) procedure:
       Solver   = POPLE   
       MaxIter  =    64   
       Tolerance=    1.000e-04
       COSX Grid=     1   
       Op-0     =   0-  6 =>   7- 67
Multiplicity                 ... 1
g-tensor                     ... 0
NMR chemical shifts          ... 1
NMR spin-spin couplings      ... 0
NMR spectrum                 ... 0
Number of nuclei for epr/nmr ... 3
   Nucleus:   1N 
       Hyperfine : Isotope=   14 I=   1.000 P=  38.568
       Quadrupole: Isotope=   14 I=   1.000 Q=   0.020
       Spin-Orbit: Zeff=   4.550
       Nuclear Spin-Spin: Gn=   0.000
       EPRNMR Input: 
       rho(0)=N f(grad)=N a(iso)=N a(dip)=N a(orb)=N sigma(nmr)=Y spin-spin(nmr)=all-N,DSO-N,PSO-N,FC-N,SD-N
   Nucleus:   0C 
       Hyperfine : Isotope=   13 I=   0.500 P= 134.190
       Quadrupole: Isotope=   13 I=   0.500 Q=   0.000
       Spin-Orbit: Zeff=   3.600
       Nuclear Spin-Spin: Gn=   0.000
       EPRNMR Input: 
       rho(0)=N f(grad)=N a(iso)=N a(dip)=N a(orb)=N sigma(nmr)=Y spin-spin(nmr)=all-N,DSO-N,PSO-N,FC-N,SD-N
   Nucleus:   2H 
       Hyperfine : Isotope=    1 I=   0.500 P= 533.551
       Quadrupole: Isotope=    2 I=   1.000 Q=   0.003
       Spin-Orbit: Zeff=   1.000
       Nuclear Spin-Spin: Gn=   0.000
       EPRNMR Input: 
       rho(0)=N f(grad)=N a(iso)=N a(dip)=N a(orb)=N sigma(nmr)=Y spin-spin(nmr)=all-N,DSO-N,PSO-N,FC-N,SD-N
Forming RHS of the CP-SCF equations         ... 
Calculating right hand sides for GIAO treatment        ... 
  Entering RightHandSide GIAO. ScalHFX=    0.2500 NeedHFX=1
     -> 1-electron GIAO integrals will be done analytically
     -> RIJCOSX used in SCF. Same chosen for GIAO calculation.
     Making grid for GIAO integrations   ...

GRID GIAO
---------

General Integration Accuracy     IntAcc      ... 4.388
Radial Grid Type                 RadialGrid  ... OptM3 with GC (2021)
Angular Grid (max. ang.)         AngularGrid ... 4 (Lebedev-302)
Angular grid pruning method      GridPruning ... 4 (adaptive)
Weight generation scheme         WeightScheme... Becke
Basis function cutoff            BFCut       ... 1.0000e-11
Integration weight cutoff        WCut        ... 1.0000e-14
Angular grids for H and He will be reduced by one unit
Partially contracted basis set               ... off
Rotationally invariant grid construction     ... off

Total number of grid points                  ...    15548
Total number of batches                      ...      245
Average number of points per batch           ...       63
Average number of grid points per atom       ...     5183

  One-electron GIAO integrals (SHARK)     ... done
  Calculating G(B)[P]                     ... (RI-J: SHARK-ok) (COSX-ok) (add-J+K:ok) => dG/dB done
  DFT XC-terms                            ... done
  Extracting occupied and virtual blocks  ... 
  Operator  0  NO=   7 NV=  61 
  Transforming and RHS contribution       ... done
  Adding eps_i * S(B)_ai terms            ... done
  Projecting overlap derivatives          ... done
  Building G[dS/dB_ij] (COSX)             ... done
  Transforming to MO basis                ... done
  Summing G[dS/dB_ij] into RHS contribs.  ... done

  GIAO profiling information: 
    Total GIAO time               ...       0.3 sec
       GIAO 1-electron integrals  ...       0.0 sec (  0.9%)
       GIAO G(dS/dB) terms        ...       0.1 sec ( 16.5%)
       GIAO RI-J                  ...       0.0 sec (  6.9%)
       GIAO COSX                  ...       0.1 sec ( 26.4%)
       GIAO XC-terms              ...       0.1 sec ( 30.0%)

  GIAO right hand side done


------------------------------------------------------------------------------
                           ORCA CP-SCF CALCULATION
------------------------------------------------------------------------------

Input orbitals are from        ... HCN_105.gbw
Input Perturbation             ... HCN_105.pin.tmp
Wavefunction output            ... HCN_105.pout.tmp
Perturbation mode              ... Imaginary perturbation
Solver                         ... POPLE
Max. number of iterations      ... 64
Convergence tolerance          ... 1.000e-04
Integral handling              ... Direct
DFT GridXC                     ... 1
COSX GridX                     ... 1
COSX IntAccX                   ... 3.067
COSX Algorithm                 ... Auto
Number of perturbations        ... 3
Number of operators            ... 1
Orbital ranges used for CP-SCF:
 Operator 0:  Orbitals   0...  6  to   7... 67
Variables per perturbation     ... 427
DFT calculation                         ... on
XC functional terms                     ... off
Hybrid DFT                              ... on
   Exchange mixing (SCF)                ...  0.250
   Exchange mixing (CP-SCF)             ...  0.250
   GGA exch. scaling(SCF)               ...  0.750
   GGA exch. scaling (CP-SCF)           ...  0.750
   GGA corr. scaling (SCF)              ...  1.000
   GGA corr. scaling (CP-SCF)           ...  1.000

CP-SCF GRID
-----------

General Integration Accuracy     IntAcc      ... 3.467
Radial Grid Type                 RadialGrid  ... OptM3 with GC (2021)
Angular Grid (max. ang.)         AngularGrid ... 1 (Lebedev-50)
Angular grid pruning method      GridPruning ... 4 (adaptive)
Weight generation scheme         WeightScheme... Becke
Basis function cutoff            BFCut       ... 1.0000e-11
Integration weight cutoff        WCut        ... 1.0000e-14
Angular grids for H and He will be reduced by one unit
Partially contracted basis set               ... off
Rotationally invariant grid construction     ... off

Total number of grid points                  ...     2357
Total number of batches                      ...       38
Average number of points per batch           ...       62
Average number of grid points per atom       ...      786

CP-SCF GRIDX
------------

General Integration Accuracy     IntAcc      ... 3.067
Radial Grid Type                 RadialGrid  ... OptM3 with GC (2021)
Angular Grid (max. ang.)         AngularGrid ... 1 (Lebedev-50)
Angular grid pruning method      GridPruning ... 4 (adaptive)
Weight generation scheme         WeightScheme... Becke
Basis function cutoff            BFCut       ... 1.0000e-11
Integration weight cutoff        WCut        ... 1.0000e-14
Angular grids for H and He will be reduced by one unit
Partially contracted basis set               ... on
Rotationally invariant grid construction     ... off

Total number of grid points                  ...     1051
Total number of batches                      ...       18
Average number of points per batch           ...       58
Average number of grid points per atom       ...      350

Memory available               ... 1015.8 MB
Memory needed per perturbation ...   0.2 MB
Perturbations treated per batch... 3
Number of batches              ... 1
     CP-SCF ITERATION   0:   5.1131e-01 (   0.0 sec   0/  3 done)
     CP-SCF ITERATION   1:   1.5825e-02 (   0.0 sec   0/  3 done)
     CP-SCF ITERATION   2:   1.7287e-03 (   0.0 sec   0/  3 done)
     CP-SCF ITERATION   3:   1.7658e-04 (   0.0 sec   2/  3 done)
     CP-SCF ITERATION   4:   1.5519e-05 (   0.0 sec   3/  3 done)
                    *** THE CP-SCF HAS CONVERGED ***

Forming final perturbed densities           ... done
Transforming perturbed density to AO basis  ... done

Magnetic field perturbation calculated in  0.645 sec

---------------
CHEMICAL SHIFTS
---------------

Note: using conversion factor for au to ppm alpha^2/2 =   26.625677252 
GIAO: Analytic para- and diamagnetic shielding integrals (SHARK)       ...done
 --------------
 Nucleus   1N :
 --------------

Diamagnetic contribution to the shielding tensor (ppm) : 
           316.660          2.587        -6.447
             0.020        316.824         0.326
            -4.386          1.434       336.757

Paramagnetic contribution to the shielding tensor (ppm): 
          -473.657        -26.236      -374.400
           -23.665       -950.026        18.514
          -143.986          5.902      -275.053

Total shielding tensor (ppm): 
          -156.997        -23.649      -380.847
           -23.646       -633.202        18.840
          -148.372          7.336        61.704


 Diagonalized sT*s matrix:
 
 sDSO           323.222          330.066          316.952  iso=     323.413
 sPSO          -262.920         -484.490         -951.326  iso=    -566.245
        ---------------  ---------------  ---------------
 Total           60.302         -154.424         -634.374  iso=    -242.832

 --------------
 Nucleus   0C :
 --------------

Diamagnetic contribution to the shielding tensor (ppm) : 
           264.466        -11.002        -3.605
            -0.892        247.149         0.179
            -7.966        -10.725       271.892

Paramagnetic contribution to the shielding tensor (ppm): 
          -336.575         13.683       -61.843
             3.568       -265.392         3.062
          -171.044         19.582       -20.765

Total shielding tensor (ppm): 
           -72.109          2.681       -65.448
             2.676        -18.243         3.241
          -179.010          8.857       251.127


 Diagonalized sT*s matrix:
 
 sDSO           246.603          262.081          274.823  iso=     261.169
 sPSO          -264.713         -343.771          -14.248  iso=    -207.577
        ---------------  ---------------  ---------------
 Total          -18.110          -81.690          260.576  iso=      53.592

 --------------
 Nucleus   2H :
 --------------

Diamagnetic contribution to the shielding tensor (ppm) : 
            40.006         -6.613        -2.158
            -1.160         16.956         0.105
            -3.207         -1.219        24.453

Paramagnetic contribution to the shielding tensor (ppm): 
           -19.397          6.869        -1.884
             1.414          8.761         0.095
            -8.561          1.803         0.545

Total shielding tensor (ppm): 
            20.608          0.255        -4.042
             0.254         25.717         0.200
           -11.767          0.584        24.997


 Diagonalized sT*s matrix:
 
 sDSO            30.574           16.628           34.213  iso=      27.138
 sPSO           -15.876            9.102           -3.317  iso=      -3.364
        ---------------  ---------------  ---------------
 Total           14.698           25.730           30.896  iso=      23.774



--------------------------------
CHEMICAL SHIELDING SUMMARY (ppm)
--------------------------------


  Nucleus  Element    Isotropic     Anisotropy
  -------  -------  ------------   ------------
      1       N         -242.832       -587.312 
      0       C           53.592        310.476 
      2       H           23.774         10.682 



Maximum memory used throughout the entire EPRNMR-calculation: 10.2 MB

----------------------------------------------------------------------------
                           ORCA NUMERICAL FREQUENCIES
                              (5-process run)
----------------------------------------------------------------------------

Number of atoms                ... 3
Central differences            ... used
Number of displacements        ... 18
Numerical increment            ... 5.000e-03 bohr
IR-spectrum generation         ... on
Raman-spectrum generation      ... off
Surface Crossing Hessian       ... off

The output will be reduced. Please look at the following files:
SCF program output             ... >HCN_105.lastscf
Integral program output        ... >HCN_105.lastint
Gradient program output        ... >HCN_105.lastgrad
Dipole moment program output   ... >HCN_105.lastmom
AutoCI program output          ... >HCN_105.lastautoci

	<< Calculating on displaced geometry   2 (of  18) >>
	<< Calculating on displaced geometry   4 (of  18) >>
	<< Calculating on displaced geometry   5 (of  18) >>
	<< Calculating on displaced geometry   3 (of  18) >>
	<< Calculating on displaced geometry   1 (of  18) >>
	<< Calculating on displaced geometry   6 (of  18) >>
	<< Calculating on displaced geometry  10 (of  18) >>
	<< Calculating on displaced geometry   7 (of  18) >>
	<< Calculating on displaced geometry   8 (of  18) >>
	<< Calculating on displaced geometry   9 (of  18) >>
	<< Calculating on displaced geometry  11 (of  18) >>
	<< Calculating on displaced geometry  12 (of  18) >>
	<< Calculating on displaced geometry  14 (of  18) >>
	<< Calculating on displaced geometry  13 (of  18) >>
	<< Calculating on displaced geometry  15 (of  18) >>
	<< Calculating on displaced geometry  16 (of  18) >>
	<< Calculating on displaced geometry  18 (of  18) >>
	<< Calculating on displaced geometry  17 (of  18) >>

-----------------------
VIBRATIONAL FREQUENCIES
-----------------------

Scaling factor for frequencies =  1.000000000 (already applied!)

   0:         0.00 cm**-1
   1:         0.00 cm**-1
   2:         0.00 cm**-1
   3:         0.00 cm**-1
   4:         0.00 cm**-1
   5:         0.00 cm**-1
   6:      -715.00 cm**-1 ***imaginary mode***
   7:      2211.55 cm**-1
   8:      3511.44 cm**-1


------------
NORMAL MODES
------------

These modes are the cartesian displacements weighted by the diagonal matrix
M(i,i)=1/sqrt(m[i]) where m[i] is the mass of the displaced atom
Thus, these vectors are normalized but *not* orthogonal

                  0          1          2          3          4          5    
      0       0.000000   0.000000   0.000000   0.000000   0.000000   0.000000
      1       0.000000   0.000000   0.000000   0.000000   0.000000   0.000000
      2       0.000000   0.000000   0.000000   0.000000   0.000000   0.000000
      3       0.000000   0.000000   0.000000   0.000000   0.000000   0.000000
      4       0.000000   0.000000   0.000000   0.000000   0.000000   0.000000
      5       0.000000   0.000000   0.000000   0.000000   0.000000   0.000000
      6       0.000000   0.000000   0.000000   0.000000   0.000000   0.000000
      7       0.000000   0.000000   0.000000   0.000000   0.000000   0.000000
      8       0.000000   0.000000   0.000000   0.000000   0.000000   0.000000
                  6          7          8    
      0      -0.081554   0.167788   0.080416
      1       0.004044  -0.008296  -0.003985
      2      -0.080184  -0.635140  -0.020502
      3       0.068168  -0.171363   0.002423
      4      -0.003378   0.008475  -0.000120
      5      -0.002543   0.564252   0.011678
      6       0.024529   0.381927  -0.991874
      7      -0.001246  -0.018920   0.049154
      8       0.990775  -0.272638   0.082009


-----------
IR SPECTRUM
-----------

 Mode   freq       eps      Int      T**2         TX        TY        TZ
       cm**-1   L/(mol*cm) km/mol    a.u.
----------------------------------------------------------------------------
  7:   2211.55   0.000781    3.95  0.000110  ( 0.002568 -0.000131  0.010177)
  8:   3511.44   0.021216  107.22  0.001885  (-0.042921  0.002151  0.006214)

* The epsilon (eps) is given for a Dirac delta lineshape.
** The dipole moment derivative (T) already includes vibrational overlap.

The first frequency considered to be a vibration is 7
The total number of vibrations considered is 2


--------------------------
THERMOCHEMISTRY AT 298.15K
--------------------------

Temperature         ... 298.15 K
Pressure            ... 1.00 atm
Total Mass          ... 27.03 AMU

Throughout the following assumptions are being made:
  (1) The electronic state is orbitally nondegenerate
  (2) There are no thermally accessible electronically excited states
  (3) Hindered rotations indicated by low frequency modes are not
      treated as such but are treated as vibrations and this may
      cause some error
  (4) All equations used are the standard statistical mechanics
      equations for an ideal gas
  (5) All vibrations are strictly harmonic

freq.    2211.55  E(vib)   ...       0.00 
freq.    3511.44  E(vib)   ...       0.00 

------------
INNER ENERGY
------------

The inner energy is: U= E(el) + E(ZPE) + E(vib) + E(rot) + E(trans)
    E(el)   - is the total energy from the electronic structure calculation
              = E(kin-el) + E(nuc-el) + E(el-el) + E(nuc-nuc)
    E(ZPE)  - the the zero temperature vibrational energy from the frequency calculation
    E(vib)  - the the finite temperature correction to E(ZPE) due to population
              of excited vibrational states
    E(rot)  - is the rotational thermal energy
    E(trans)- is the translational thermal energy

Summary of contributions to the inner energy U:
Electronic energy                ...    -93.29315220 Eh
Zero point energy                ...      0.01303792 Eh       8.18 kcal/mol
Thermal vibrational correction   ...      0.00000023 Eh       0.00 kcal/mol
Thermal rotational correction    ...      0.00141627 Eh       0.89 kcal/mol
Thermal translational correction ...      0.00141627 Eh       0.89 kcal/mol
-----------------------------------------------------------------------
Total thermal energy                    -93.27728150 Eh


Summary of corrections to the electronic energy:
(perhaps to be used in another calculation)
Total thermal correction                  0.00283278 Eh       1.78 kcal/mol
Non-thermal (ZPE) correction              0.01303792 Eh       8.18 kcal/mol
-----------------------------------------------------------------------
Total correction                          0.01587070 Eh       9.96 kcal/mol


--------
ENTHALPY
--------

The enthalpy is H = U + kB*T
                kB is Boltzmann's constant
Total free energy                 ...    -93.27728150 Eh 
Thermal Enthalpy correction       ...      0.00094421 Eh       0.59 kcal/mol
-----------------------------------------------------------------------
Total Enthalpy                    ...    -93.27633729 Eh


Note: Rotational entropy computed according to Herzberg 
Infrared and Raman Spectra, Chapter V,1, Van Nostrand Reinhold, 1945 
Point Group:  Cs, Symmetry Number:   1  
Rotational constants in cm-1:    18.342173     1.767523     1.612168 

Vibrational entropy computed according to the QRRHO of S. Grimme
Chem.Eur.J. 2012 18 9955


-------
ENTROPY
-------

The entropy contributions are T*S = T*(S(el)+S(vib)+S(rot)+S(trans))
     S(el)   - electronic entropy
     S(vib)  - vibrational entropy
     S(rot)  - rotational entropy
     S(trans)- translational entropy
The entropies will be listed as multiplied by the temperature to get
units of energy

Electronic entropy                ...      0.00000000 Eh      0.00 kcal/mol
Vibrational entropy               ...      0.00000026 Eh      0.00 kcal/mol
Rotational entropy                ...      0.00764305 Eh      4.80 kcal/mol
Translational entropy             ...      0.01701823 Eh     10.68 kcal/mol
-----------------------------------------------------------------------
Final entropy term                ...      0.02466154 Eh     15.48 kcal/mol

In case the symmetry of your molecule has not been determined correctly
or in case you have a reason to use a different symmetry number we print 
out the resulting rotational entropy values for sn=1,12 :
 --------------------------------------------------------
|  sn= 1 | S(rot)=       0.00764305 Eh      4.80 kcal/mol|
|  sn= 2 | S(rot)=       0.00698859 Eh      4.39 kcal/mol|
|  sn= 3 | S(rot)=       0.00660576 Eh      4.15 kcal/mol|
|  sn= 4 | S(rot)=       0.00633414 Eh      3.97 kcal/mol|
|  sn= 5 | S(rot)=       0.00612345 Eh      3.84 kcal/mol|
|  sn= 6 | S(rot)=       0.00595130 Eh      3.73 kcal/mol|
|  sn= 7 | S(rot)=       0.00580576 Eh      3.64 kcal/mol|
|  sn= 8 | S(rot)=       0.00567968 Eh      3.56 kcal/mol|
|  sn= 9 | S(rot)=       0.00556847 Eh      3.49 kcal/mol|
|  sn=10 | S(rot)=       0.00546899 Eh      3.43 kcal/mol|
|  sn=11 | S(rot)=       0.00537900 Eh      3.38 kcal/mol|
|  sn=12 | S(rot)=       0.00529685 Eh      3.32 kcal/mol|
 --------------------------------------------------------


-------------------
GIBBS FREE ENERGY
-------------------

The Gibbs free energy is G = H - T*S

Total enthalpy                    ...    -93.27633729 Eh 
Total entropy correction          ...     -0.02466154 Eh    -15.48 kcal/mol
-----------------------------------------------------------------------
Final Gibbs free energy         ...    -93.30099883 Eh

For completeness - the Gibbs free energy minus the electronic energy
G-E(el)                           ...     -0.00784663 Eh     -4.92 kcal/mol



Timings for individual modules:

Sum of individual times         ...       74.495 sec (=   1.242 min)
GTO integral calculation        ...        4.596 sec (=   0.077 min)   6.2 %
SCF iterations                  ...        7.648 sec (=   0.127 min)  10.3 %
EPR/NMR calculation             ...        2.271 sec (=   0.038 min)   3.0 %
SCF Gradient evaluation         ...        3.942 sec (=   0.066 min)   5.3 %
Numerical frequency calculation ...       56.038 sec (=   0.934 min)  75.2 %
                             ****ORCA TERMINATED NORMALLY****
TOTAL RUN TIME: 0 days 0 hours 1 minutes 7 seconds 802 msec
