
                                 *****************
                                 * O   R   C   A *
                                 *****************

                                            #,                                       
                                            ###                                      
                                            ####                                     
                                            #####                                    
                                            ######                                   
                                           ########,                                 
                                     ,,################,,,,,                         
                               ,,#################################,,                 
                          ,,##########################################,,             
                       ,#########################################, ''#####,          
                    ,#############################################,,   '####,        
                  ,##################################################,,,,####,       
                ,###########''''           ''''###############################       
              ,#####''   ,,,,##########,,,,          '''####'''          '####       
            ,##' ,,,,###########################,,,                        '##       
           ' ,,###''''                  '''############,,,                           
         ,,##''                                '''############,,,,        ,,,,,,###''
      ,#''                                            '''#######################'''  
     '                                                          ''''####''''         
             ,#######,   #######,   ,#######,      ##                                
            ,#'     '#,  ##    ##  ,#'     '#,    #''#        ######   ,####,        
            ##       ##  ##   ,#'  ##            #'  '#       #        #'  '#        
            ##       ##  #######   ##           ,######,      #####,   #    #        
            '#,     ,#'  ##    ##  '#,     ,#' ,#      #,         ##   #,  ,#        
             '#######'   ##     ##  '#######'  #'      '#     #####' # '####'        



                  #######################################################
                  #                        -***-                        #
                  #          Department of theory and spectroscopy      #
                  #    Directorship and core code : Frank Neese         #
                  #        Max Planck Institute fuer Kohlenforschung    #
                  #                Kaiser Wilhelm Platz 1               #
                  #                 D-45470 Muelheim/Ruhr               #
                  #                      Germany                        #
                  #                                                     #
                  #                  All rights reserved                #
                  #                        -***-                        #
                  #######################################################


                         Program Version 5.0.3 -  RELEASE  -


 With contributions from (in alphabetic order):
   Daniel Aravena         : Magnetic Suceptibility
   Michael Atanasov       : Ab Initio Ligand Field Theory (pilot matlab implementation)
   Alexander A. Auer      : GIAO ZORA, VPT2 properties, NMR spectrum
   Ute Becker             : Parallelization
   Giovanni Bistoni       : ED, misc. LED, open-shell LED, HFLD
   Martin Brehm           : Molecular dynamics
   Dmytro Bykov           : SCF Hessian
   Vijay G. Chilkuri      : MRCI spin determinant printing, contributions to CSF-ICE
   Dipayan Datta          : RHF DLPNO-CCSD density
   Achintya Kumar Dutta   : EOM-CC, STEOM-CC
   Dmitry Ganyushin       : Spin-Orbit,Spin-Spin,Magnetic field MRCI
   Miquel Garcia          : C-PCM and meta-GGA Hessian, CC/C-PCM, Gaussian charge scheme
   Yang Guo               : DLPNO-NEVPT2, F12-NEVPT2, CIM, IAO-localization
   Andreas Hansen         : Spin unrestricted coupled pair/coupled cluster methods
   Benjamin Helmich-Paris : MC-RPA, TRAH-SCF, COSX integrals
   Lee Huntington         : MR-EOM, pCC
   Robert Izsak           : Overlap fitted RIJCOSX, COSX-SCS-MP3, EOM
   Marcus Kettner         : VPT2
   Christian Kollmar      : KDIIS, OOCD, Brueckner-CCSD(T), CCSD density, CASPT2, CASPT2-K
   Simone Kossmann        : Meta GGA functionals, TD-DFT gradient, OOMP2, MP2 Hessian
   Martin Krupicka        : Initial AUTO-CI
   Lucas Lang             : DCDCAS
   Marvin Lechner         : AUTO-CI (C++ implementation), FIC-MRCC
   Dagmar Lenk            : GEPOL surface, SMD
   Dimitrios Liakos       : Extrapolation schemes; Compound Job, initial MDCI parallelization
   Dimitrios Manganas     : Further ROCIS development; embedding schemes
   Dimitrios Pantazis     : SARC Basis sets
   Anastasios Papadopoulos: AUTO-CI, single reference methods and gradients
   Taras Petrenko         : DFT Hessian,TD-DFT gradient, ASA, ECA, R-Raman, ABS, FL, XAS/XES, NRVS
   Peter Pinski           : DLPNO-MP2, DLPNO-MP2 Gradient
   Christoph Reimann      : Effective Core Potentials
   Marius Retegan         : Local ZFS, SOC
   Christoph Riplinger    : Optimizer, TS searches, QM/MM, DLPNO-CCSD(T), (RO)-DLPNO pert. Triples
   Tobias Risthaus        : Range-separated hybrids, TD-DFT gradient, RPA, STAB
   Michael Roemelt        : Original ROCIS implementation
   Masaaki Saitow         : Open-shell DLPNO-CCSD energy and density
   Barbara Sandhoefer     : DKH picture change effects
   Avijit Sen             : IP-ROCIS
   Kantharuban Sivalingam : CASSCF convergence, NEVPT2, FIC-MRCI
   Bernardo de Souza      : ESD, SOC TD-DFT
   Georgi Stoychev        : AutoAux, RI-MP2 NMR, DLPNO-MP2 response
   Willem Van den Heuvel  : Paramagnetic NMR
   Boris Wezisla          : Elementary symmetry handling
   Frank Wennmohs         : Technical directorship


 We gratefully acknowledge several colleagues who have allowed us to
 interface, adapt or use parts of their codes:
   Stefan Grimme, W. Hujo, H. Kruse, P. Pracht,  : VdW corrections, initial TS optimization,
                  C. Bannwarth, S. Ehlert          DFT functionals, gCP, sTDA/sTD-DF
   Ed Valeev, F. Pavosevic, A. Kumar             : LibInt (2-el integral package), F12 methods
   Garnet Chan, S. Sharma, J. Yang, R. Olivares  : DMRG
   Ulf Ekstrom                                   : XCFun DFT Library
   Mihaly Kallay                                 : mrcc  (arbitrary order and MRCC methods)
   Jiri Pittner, Ondrej Demel                    : Mk-CCSD
   Frank Weinhold                                : gennbo (NPA and NBO analysis)
   Christopher J. Cramer and Donald G. Truhlar   : smd solvation model
   Lars Goerigk                                  : TD-DFT with DH, B97 family of functionals
   V. Asgeirsson, H. Jonsson                     : NEB implementation
   FAccTs GmbH                                   : IRC, NEB, NEB-TS, DLPNO-Multilevel, CI-OPT
                                                   MM, QMMM, 2- and 3-layer-ONIOM, Crystal-QMMM,
                                                   LR-CPCM, SF, NACMEs, symmetry and pop. for TD-DFT,
                                                   nearIR, NL-DFT gradient (VV10), updates on ESD,
                                                   ML-optimized integration grids
   S Lehtola, MJT Oliveira, MAL Marques          : LibXC Library
   Liviu Ungur et al                             : ANISO software


 Your calculation uses the libint2 library for the computation of 2-el integrals
 For citations please refer to: http://libint.valeyev.net

 Your ORCA version has been built with support for libXC version: 5.1.0
 For citations please refer to: https://tddft.org/programs/libxc/

 This ORCA versions uses:
   CBLAS   interface :  Fast vector & matrix operations
   LAPACKE interface :  Fast linear algebra routines
   Shared memory     :  Shared parallel matrices


SCAN-COORDS
================================================================================

----- Orbital basis set information -----
Your calculation utilizes the basis: def2-TZVP
   F. Weigend and R. Ahlrichs, Phys. Chem. Chem. Phys. 7, 3297 (2005).

----- AuxJ basis set information -----
Your calculation utilizes the auxiliary basis: def2/J
   F. Weigend, Phys. Chem. Chem. Phys. 8, 1057 (2006).

================================================================================
                                        WARNINGS
                       Please study these warnings very carefully!
================================================================================

WARNING: Gradients needed for Numerical Frequencies
  ===> : Setting RunTyp to EnGrad

WARNING: The environment variable RSH_COMMAND is not set!
  ===> : All Displacements for the Numerical Hessian or Gradient calculation
         will be started on localhost

INFO   : the flag for use of the SHARK integral package has been found!

================================================================================
                                       INPUT FILE
================================================================================
NAME = C2N2_50.inp
|  1> ! PAL5 PBE0 NumFreq
|  2> %method
|  3>         method DFT
|  4>         runtyp Energy
|  5> end
|  6> %basis
|  7>         basis "def2-TZVP"
|  8> end
|  9> %coords
| 10>         CTyp xyz
| 11>         Charge 0
| 12>         Mult 1
| 13>         Units Angs
| 14>         coords
| 15> 	#63.3
| 16> 	C      0.901162    0.213223   -0.028373
| 17> 	C      2.433052    0.225083   -0.148833
| 18> 	H      0.564408   -0.705168    0.457733
| 19> 	H      0.440970    0.271192   -1.017312
| 20> 	H      0.559134    1.064891    0.563995
| 21> 	H      2.763812   -0.521759   -0.874150
| 22> 	H      2.781611    1.206533   -0.477840
| 23> 	H      2.892631   -0.000931    0.815945
| 24> 	end
| 25> end
| 26> %eprnmr
| 27>         NMRShielding 1
| 28>         Nuclei = all C {shift}
| 29>         Nuclei = all H {shift}
| 30> endd                         ****END OF INPUT****
================================================================================

                     *******************************
                     * Energy+Gradient Calculation *
                     *******************************

---------------------------------
CARTESIAN COORDINATES (ANGSTROEM)
---------------------------------
  C      0.901162    0.213223   -0.028373
  C      2.433052    0.225083   -0.148833
  H      0.564408   -0.705168    0.457733
  H      0.440970    0.271192   -1.017312
  H      0.559134    1.064891    0.563995
  H      2.763812   -0.521759   -0.874150
  H      2.781611    1.206533   -0.477840
  H      2.892631   -0.000931    0.815945

----------------------------
CARTESIAN COORDINATES (A.U.)
----------------------------
  NO LB      ZA    FRAG     MASS         X           Y           Z
   0 C     6.0000    0    12.011    1.702949    0.402933   -0.053617
   1 C     6.0000    0    12.011    4.597802    0.425345   -0.281254
   2 H     1.0000    0     1.008    1.066577   -1.332574    0.864990
   3 H     1.0000    0     1.008    0.833313    0.512479   -1.922441
   4 H     1.0000    0     1.008    1.056610    2.012352    1.065796
   5 H     1.0000    0     1.008    5.222848   -0.985982   -1.651904
   6 H     1.0000    0     1.008    5.256483    2.280017   -0.902987
   7 H     1.0000    0     1.008    5.466280   -0.001759    1.541913

--------------------------------
INTERNAL COORDINATES (ANGSTROEM)
--------------------------------
 C      0   0   0     0.000000000000     0.00000000     0.00000000
 C      1   0   0     1.536664648939     0.00000000     0.00000000
 H      1   2   0     1.092311461367   110.40854521     0.00000000
 H      1   2   3     1.092308302425   110.40241131   240.00052849
 H      1   2   3     1.092346731781   110.40372728   120.00171220
 H      2   1   3     1.092364362771   110.40327172    69.50486257
 H      2   1   3     1.092237650436   110.40662380   189.50835985
 H      2   1   3     1.092287404817   110.40203133   309.51182355

---------------------------
INTERNAL COORDINATES (A.U.)
---------------------------
 C      0   0   0     0.000000000000     0.00000000     0.00000000
 C      1   0   0     2.903875346174     0.00000000     0.00000000
 H      1   2   0     2.064169514926   110.40854521     0.00000000
 H      1   2   3     2.064163545391   110.40241131   240.00052849
 H      1   2   3     2.064236166349   110.40372728   120.00171220
 H      2   1   3     2.064269484093   110.40327172    69.50486257
 H      2   1   3     2.064030032482   110.40662380   189.50835985
 H      2   1   3     2.064124054635   110.40203133   309.51182355

---------------------
BASIS SET INFORMATION
---------------------
There are 2 groups of distinct atoms

 Group   1 Type C   : 11s6p2d1f contracted to 5s3p2d1f pattern {62111/411/11/1}
 Group   2 Type H   : 5s1p contracted to 3s1p pattern {311/1}

Atom   0C    basis set group =>   1
Atom   1C    basis set group =>   1
Atom   2H    basis set group =>   2
Atom   3H    basis set group =>   2
Atom   4H    basis set group =>   2
Atom   5H    basis set group =>   2
Atom   6H    basis set group =>   2
Atom   7H    basis set group =>   2
---------------------------------
AUXILIARY/J BASIS SET INFORMATION
---------------------------------
There are 2 groups of distinct atoms

 Group   1 Type C   : 12s5p4d2f1g contracted to 6s4p3d1f1g pattern {711111/2111/211/2/1}
 Group   2 Type H   : 5s2p1d contracted to 3s1p1d pattern {311/2/1}

Atom   0C    basis set group =>   1
Atom   1C    basis set group =>   1
Atom   2H    basis set group =>   2
Atom   3H    basis set group =>   2
Atom   4H    basis set group =>   2
Atom   5H    basis set group =>   2
Atom   6H    basis set group =>   2
Atom   7H    basis set group =>   2


           ************************************************************
           *        Program running with 5 parallel MPI-processes     *
           *              working on a common directory               *
           ************************************************************
------------------------------------------------------------------------------
                           ORCA GTO INTEGRAL CALCULATION
                           -- RI-GTO INTEGRALS CHOSEN --
------------------------------------------------------------------------------
------------------------------------------------------------------------------
                   ___                                                        
                  /   \      - P O W E R E D   B Y -                         
                 /     \                                                     
                 |  |  |   _    _      __       _____    __    __             
                 |  |  |  | |  | |    /  \     |  _  \  |  |  /  |          
                  \  \/   | |  | |   /    \    | | | |  |  | /  /          
                 / \  \   | |__| |  /  /\  \   | |_| |  |  |/  /          
                |  |  |   |  __  | /  /__\  \  |    /   |      \           
                |  |  |   | |  | | |   __   |  |    \   |  |\   \          
                \     /   | |  | | |  |  |  |  | |\  \  |  | \   \       
                 \___/    |_|  |_| |__|  |__|  |_| \__\ |__|  \__/        
                                                                              
                      - O R C A' S   B I G   F R I E N D -                    
                                      &                                       
                       - I N T E G R A L  F E E D E R -                       
                                                                              
 v1 FN, 2020, v2 2021                                                         
------------------------------------------------------------------------------


Reading SHARK input file C2N2_50.SHARKINP.tmp ... ok
----------------------
SHARK INTEGRAL PACKAGE
----------------------

Number of atoms                             ...      8
Number of basis functions                   ...     98
Number of shells                            ...     46
Maximum angular momentum                    ...      3
Integral batch strategy                     ... SHARK/LIBINT Hybrid
RI-J (if used) integral strategy            ... SPLIT-RIJ (Revised 2003 algorithm where possible)
Printlevel                                  ...      1
Contraction scheme used                     ... SEGMENTED contraction
Coulomb Range Separation                    ... NOT USED
Exchange Range Separation                   ... NOT USED
Finite Nucleus Model                        ... NOT USED
Auxiliary Coulomb fitting basis             ... AVAILABLE
   # of basis functions in Aux-J            ...    164
   # of shells in Aux-J                     ...     60
   Maximum angular momentum in Aux-J        ...      4
Auxiliary J/K fitting basis                 ... NOT available
Auxiliary Correlation fitting basis         ... NOT available
Auxiliary 'external' fitting basis          ... NOT available
Integral threshold                          ...     2.500000e-11
Primitive cut-off                           ...     2.500000e-12
Primitive pair pre-selection threshold      ...     2.500000e-12

Calculating pre-screening integrals         ... done (  0.0 sec) Dimension = 46
Organizing shell pair data                  ... done (  0.0 sec)
Shell pair information
Total number of shell pairs                 ...      1081
Shell pairs after pre-screening             ...      1080
Total number of primitive shell pairs       ...      2988
Primitive shell pairs kept                  ...      2670
          la=0 lb=0:    405 shell pairs
          la=1 lb=0:    336 shell pairs
          la=1 lb=1:     78 shell pairs
          la=2 lb=0:    112 shell pairs
          la=2 lb=1:     48 shell pairs
          la=2 lb=2:     10 shell pairs
          la=3 lb=0:     56 shell pairs
          la=3 lb=1:     24 shell pairs
          la=3 lb=2:      8 shell pairs
          la=3 lb=3:      3 shell pairs

Calculating one electron integrals          ... done (  0.0 sec)
Calculating RI/J V-Matrix + Cholesky decomp.... done (  0.0 sec)
Calculating Nuclear repulsion               ... done (  0.0 sec) ENN=     42.170455138994 Eh

SHARK setup successfully completed in   0.1 seconds

Maximum memory used throughout the entire GTOINT-calculation: 14.6 MB


           ************************************************************
           *        Program running with 5 parallel MPI-processes     *
           *              working on a common directory               *
           ************************************************************
-------------------------------------------------------------------------------
                                 ORCA SCF
-------------------------------------------------------------------------------

------------
SCF SETTINGS
------------
Hamiltonian:
 Density Functional     Method          .... DFT(GTOs)
 Exchange Functional    Exchange        .... PBE
   PBE kappa parameter   XKappa         ....  0.804000
   PBE mue parameter    XMuePBE         ....  0.219520
 Correlation Functional Correlation     .... PBE
   PBE beta parameter  CBetaPBE         ....  0.066725
 LDA part of GGA corr.  LDAOpt          .... PW91-LDA
 Gradients option       PostSCFGGA      .... off
 Hybrid DFT is turned on
   Fraction HF Exchange ScalHFX         ....  0.250000
   Scaling of DF-GGA-X  ScalDFX         ....  0.750000
   Scaling of DF-GGA-C  ScalDFC         ....  1.000000
   Scaling of DF-LDA-C  ScalLDAC        ....  1.000000
   Perturbative correction              ....  0.000000
   Density functional embedding theory  .... OFF
   NL short-range parameter             ....  6.900000
 RI-approximation to the Coulomb term is turned on
   Number of AuxJ basis functions       .... 164
   RIJ-COSX (HFX calculated with COS-X)).... on


General Settings:
 Integral files         IntName         .... C2N2_50
 Hartree-Fock type      HFTyp           .... RHF
 Total Charge           Charge          ....    0
 Multiplicity           Mult            ....    1
 Number of Electrons    NEL             ....   18
 Basis Dimension        Dim             ....   98
 Nuclear Repulsion      ENuc            ....     42.1704551390 Eh

Convergence Acceleration:
 DIIS                   CNVDIIS         .... on
   Start iteration      DIISMaxIt       ....    12
   Startup error        DIISStart       ....  0.200000
   # of expansion vecs  DIISMaxEq       ....     5
   Bias factor          DIISBfac        ....   1.050
   Max. coefficient     DIISMaxC        ....  10.000
 Trust-Rad. Augm. Hess. CNVTRAH         .... auto
   Auto Start mean grad. ratio tolernc. ....  1.125000
   Auto Start start iteration           ....    20
   Auto Start num. interpolation iter.  ....    10
   Max. Number of Micro iterations      ....    16
   Max. Number of Macro iterations      .... Maxiter - #DIIS iter
   Number of Davidson start vectors     ....     2
   Converg. threshold I  (grad. norm)   ....   1.000e-05
   Converg. threshold II (energy diff.) ....   1.000e-08
   Grad. Scal. Fac. for Micro threshold ....   0.100
   Minimum threshold for Micro iter.    ....   0.010
   NR start threshold (gradient norm)   ....   0.001
   Initial trust radius                 ....   0.400
   Minimum AH scaling param. (alpha)    ....   1.000
   Maximum AH scaling param. (alpha)    .... 1000.000
   Orbital update algorithm             .... Taylor
   White noise on init. David. guess    .... on
   Maximum white noise                  ....   0.010
   Quad. conv. algorithm                .... NR
 SOSCF                  CNVSOSCF        .... on
   Start iteration      SOSCFMaxIt      ....   150
   Startup grad/error   SOSCFStart      ....  0.003300
 Level Shifting         CNVShift        .... on
   Level shift para.    LevelShift      ....    0.2500
   Turn off err/grad.   ShiftErr        ....    0.0010
 Zerner damping         CNVZerner       .... off
 Static damping         CNVDamp         .... on
   Fraction old density DampFac         ....    0.7000
   Max. Damping (<1)    DampMax         ....    0.9800
   Min. Damping (>=0)   DampMin         ....    0.0000
   Turn off err/grad.   DampErr         ....    0.1000
 Fernandez-Rico         CNVRico         .... off

SCF Procedure:
 Maximum # iterations   MaxIter         ....   125
 SCF integral mode      SCFMode         .... Direct
   Integral package                     .... SHARK and LIBINT hybrid scheme
 Reset frequency        DirectResetFreq ....    20
 Integral Threshold     Thresh          ....  2.500e-11 Eh
 Primitive CutOff       TCut            ....  2.500e-12 Eh

Convergence Tolerance:
 Convergence Check Mode ConvCheckMode   .... Total+1el-Energy
 Convergence forced     ConvForced      .... 0
 Energy Change          TolE            ....  1.000e-08 Eh
 1-El. energy change                    ....  1.000e-05 Eh
 Orbital Gradient       TolG            ....  1.000e-05
 Orbital Rotation angle TolX            ....  1.000e-05
 DIIS Error             TolErr          ....  5.000e-07


Diagonalization of the overlap matrix:
Smallest eigenvalue                        ... 5.752e-04
Time for diagonalization                   ...    0.001 sec
Threshold for overlap eigenvalues          ... 1.000e-08
Number of eigenvalues below threshold      ... 0
Time for construction of square roots      ...    0.005 sec
Total time needed                          ...    0.006 sec

Time for model grid setup =    0.024 sec

------------------------------
INITIAL GUESS: MODEL POTENTIAL
------------------------------
Loading Hartree-Fock densities                     ... done
Calculating cut-offs                               ... done
Initializing the effective Hamiltonian             ... done
Setting up the integral package (SHARK)            ... done
Starting the Coulomb interaction                   ... done (   0.0 sec)
Reading the grid                                   ... done
Mapping shells                                     ... done
Starting the XC term evaluation                    ... done (   0.0 sec)
  promolecular density results
     # of electrons  =     17.997791869
     EX              =    -11.972720676
     EC              =     -0.554623012
     EX+EC           =    -12.527343688
Transforming the Hamiltonian                       ... done (   0.0 sec)
Diagonalizing the Hamiltonian                      ... done (   0.0 sec)
Back transforming the eigenvectors                 ... done (   0.0 sec)
Now organizing SCF variables                       ... done
                      ------------------
                      INITIAL GUESS DONE (   0.1 sec)
                      ------------------
-------------------
DFT GRID GENERATION
-------------------

General Integration Accuracy     IntAcc      ... 4.388
Radial Grid Type                 RadialGrid  ... OptM3 with GC (2021)
Angular Grid (max. ang.)         AngularGrid ... 4 (Lebedev-302)
Angular grid pruning method      GridPruning ... 4 (adaptive)
Weight generation scheme         WeightScheme... Becke
Basis function cutoff            BFCut       ... 1.0000e-11
Integration weight cutoff        WCut        ... 1.0000e-14
Angular grids for H and He will be reduced by one unit
Partially contracted basis set               ... off
Rotationally invariant grid construction     ... off

Total number of grid points                  ...    31677
Total number of batches                      ...      498
Average number of points per batch           ...       63
Average number of grid points per atom       ...     3960
Time for grid setup =    0.114 sec

--------------------
COSX GRID GENERATION
--------------------

GRIDX 1
-------
General Integration Accuracy     IntAcc      ... 3.816
Radial Grid Type                 RadialGrid  ... OptM3 with GC (2021)
Angular Grid (max. ang.)         AngularGrid ... 1 (Lebedev-50)
Angular grid pruning method      GridPruning ... 4 (adaptive)
Weight generation scheme         WeightScheme... Becke
Basis function cutoff            BFCut       ... 1.0000e-11
Integration weight cutoff        WCut        ... 1.0000e-14
Angular grids for H and He will be reduced by one unit
Partially contracted basis set               ... on
Rotationally invariant grid construction     ... off

Total number of grid points                  ...     4119
Total number of batches                      ...       69
Average number of points per batch           ...       59
Average number of grid points per atom       ...      515
UseSFitting                                  ... on

GRIDX 2
-------
General Integration Accuracy     IntAcc      ... 4.020
Radial Grid Type                 RadialGrid  ... OptM3 with GC (2021)
Angular Grid (max. ang.)         AngularGrid ... 2 (Lebedev-110)
Angular grid pruning method      GridPruning ... 4 (adaptive)
Weight generation scheme         WeightScheme... Becke
Basis function cutoff            BFCut       ... 1.0000e-11
Integration weight cutoff        WCut        ... 1.0000e-14
Angular grids for H and He will be reduced by one unit
Partially contracted basis set               ... on
Rotationally invariant grid construction     ... off

Total number of grid points                  ...     8408
Total number of batches                      ...      136
Average number of points per batch           ...       61
Average number of grid points per atom       ...     1051
UseSFitting                                  ... on

GRIDX 3
-------
General Integration Accuracy     IntAcc      ... 4.338
Radial Grid Type                 RadialGrid  ... OptM3 with GC (2021)
Angular Grid (max. ang.)         AngularGrid ... 3 (Lebedev-194)
Angular grid pruning method      GridPruning ... 4 (adaptive)
Weight generation scheme         WeightScheme... Becke
Basis function cutoff            BFCut       ... 1.0000e-11
Integration weight cutoff        WCut        ... 1.0000e-14
Angular grids for H and He will be reduced by one unit
Partially contracted basis set               ... on
Rotationally invariant grid construction     ... off

Total number of grid points                  ...    18442
Total number of batches                      ...      292
Average number of points per batch           ...       63
Average number of grid points per atom       ...     2305
UseSFitting                                  ... on

Time for X-Grid setup             =    0.442 sec

--------------
SCF ITERATIONS
--------------
ITER       Energy         Delta-E        Max-DP      RMS-DP      [F,P]     Damp
               ***  Starting incremental Fock matrix formation  ***
  0    -79.6413106581   0.000000000000 0.03301500  0.00144864  0.1888570 0.7000
  1    -79.6913486899  -0.050038031761 0.02162379  0.00107311  0.1005600 0.7000
                               ***Turning on DIIS***
  2    -79.7122677667  -0.020919076840 0.03397888  0.00186298  0.0397627 0.0000
  3    -79.7405589436  -0.028291176804 0.01388557  0.00070955  0.0535414 0.0000
  4    -79.7492941913  -0.008735247764 0.00269024  0.00020658  0.0113535 0.0000
                      *** Initiating the SOSCF procedure ***
                           *** Shutting down DIIS ***
                      *** Re-Reading the Fockian *** 
                      *** Removing any level shift *** 
ITER      Energy       Delta-E        Grad      Rot      Max-DP    RMS-DP
  5    -79.74972990  -0.0004357040  0.000894  0.000894  0.001065  0.000076
               *** Restarting incremental Fock matrix formation ***
  6    -79.74975559  -0.0000256936  0.000333  0.000644  0.000893  0.000054
  7    -79.74975616  -0.0000005694  0.000251  0.000177  0.000227  0.000011
  8    -79.74975737  -0.0000012068  0.000034  0.000036  0.000036  0.000002
  9    -79.74975737  -0.0000000096  0.000010  0.000011  0.000010  0.000001
                 **** Energy Check signals convergence ****
              ***Rediagonalizing the Fockian in SOSCF/NRSCF***

               *****************************************************
               *                     SUCCESS                       *
               *           SCF CONVERGED AFTER  10 CYCLES          *
               *****************************************************

Old exchange energy                            =     -3.121731534 Eh
New exchange energy                            =     -3.121731359 Eh
Exchange energy change after final integration =      0.000000176 Eh
Total energy after final integration           =    -79.749757200 Eh
Final COS-X integration done in                =     0.317 sec

----------------
TOTAL SCF ENERGY
----------------

Total Energy       :          -79.74975720 Eh           -2170.10122 eV

Components:
Nuclear Repulsion  :           42.17045514 Eh            1147.51642 eV
Electronic Energy  :         -121.92021234 Eh           -3317.61764 eV
One Electron Energy:         -189.20002294 Eh           -5148.39436 eV
Two Electron Energy:           67.27981060 Eh            1830.77672 eV
Max COSX asymmetry :            0.00000068 Eh               0.00002 eV

Virial components:
Potential Energy   :         -159.01328493 Eh           -4326.97146 eV
Kinetic Energy     :           79.26352773 Eh            2156.87024 eV
Virial Ratio       :            2.00613434


DFT components:
N(Alpha)           :        9.000000008961 electrons
N(Beta)            :        9.000000008961 electrons
N(Total)           :       18.000000017922 electrons
E(X)               :       -9.303069401831 Eh       
E(C)               :       -0.561771108263 Eh       
E(XC)              :       -9.864840510093 Eh       
DFET-embed. en.    :        0.000000000000 Eh       

---------------
SCF CONVERGENCE
---------------

  Last Energy change         ...   -1.5018e-09  Tolerance :   1.0000e-08
  Last MAX-Density change    ...    1.2212e-15  Tolerance :   1.0000e-07
  Last RMS-Density change    ...    2.3151e-17  Tolerance :   5.0000e-09
  Last Orbital Gradient      ...    8.0627e-07  Tolerance :   1.0000e-05
  Last Orbital Rotation      ...    6.3287e-07  Tolerance :   1.0000e-05

             **** THE GBW FILE WAS UPDATED (C2N2_50.gbw) ****
             **** DENSITY C2N2_50.scfp WAS UPDATED ****
             **** ENERGY FILE WAS UPDATED (C2N2_50.en.tmp) ****
             **** THE GBW FILE WAS UPDATED (C2N2_50.gbw) ****
             **** DENSITY C2N2_50.scfp WAS UPDATED ****
----------------
ORBITAL ENERGIES
----------------

  NO   OCC          E(Eh)            E(eV) 
   0   2.0000     -10.207378      -277.7569 
   1   2.0000     -10.207151      -277.7507 
   2   2.0000      -0.773291       -21.0423 
   3   2.0000      -0.631362       -17.1802 
   4   2.0000      -0.448161       -12.1951 
   5   2.0000      -0.448151       -12.1948 
   6   2.0000      -0.373900       -10.1743 
   7   2.0000      -0.353845        -9.6286 
   8   2.0000      -0.353829        -9.6282 
   9   0.0000       0.052113         1.4181 
  10   0.0000       0.092381         2.5138 
  11   0.0000       0.118757         3.2315 
  12   0.0000       0.118770         3.2319 
  13   0.0000       0.138776         3.7763 
  14   0.0000       0.138787         3.7766 
  15   0.0000       0.198027         5.3886 
  16   0.0000       0.210227         5.7206 
  17   0.0000       0.245264         6.6740 
  18   0.0000       0.245281         6.6744 
  19   0.0000       0.258945         7.0462 
  20   0.0000       0.258947         7.0463 
  21   0.0000       0.409141        11.1333 
  22   0.0000       0.426507        11.6058 
  23   0.0000       0.437504        11.9051 
  24   0.0000       0.456169        12.4130 
  25   0.0000       0.456195        12.4137 
  26   0.0000       0.511497        13.9185 
  27   0.0000       0.511523        13.9192 
  28   0.0000       0.563323        15.3288 
  29   0.0000       0.587777        15.9942 
  30   0.0000       0.641834        17.4652 
  31   0.0000       0.641856        17.4658 
  32   0.0000       0.848738        23.0953 
  33   0.0000       0.848780        23.0965 
  34   0.0000       0.938341        25.5336 
  35   0.0000       1.034483        28.1497 
  36   0.0000       1.034487        28.1498 
  37   0.0000       1.051139        28.6029 
  38   0.0000       1.051151        28.6033 
  39   0.0000       1.109786        30.1988 
  40   0.0000       1.494137        40.6575 
  41   0.0000       1.494967        40.6801 
  42   0.0000       1.494990        40.6807 
  43   0.0000       1.535527        41.7838 
  44   0.0000       1.543699        42.0062 
  45   0.0000       1.552335        42.2412 
  46   0.0000       1.597517        43.4706 
  47   0.0000       1.597582        43.4724 
  48   0.0000       1.746461        47.5236 
  49   0.0000       1.747328        47.5472 
  50   0.0000       1.803478        49.0751 
  51   0.0000       1.803505        49.0759 
  52   0.0000       1.938533        52.7502 
  53   0.0000       1.938568        52.7511 
  54   0.0000       1.987852        54.0922 
  55   0.0000       2.146510        58.4095 
  56   0.0000       2.280755        62.0625 
  57   0.0000       2.328051        63.3495 
  58   0.0000       2.328090        63.3506 
  59   0.0000       2.355726        64.1026 
  60   0.0000       2.355767        64.1037 
  61   0.0000       2.391090        65.0649 
  62   0.0000       2.391124        65.0658 
  63   0.0000       2.546567        69.2956 
  64   0.0000       2.546625        69.2972 
  65   0.0000       2.579180        70.1831 
  66   0.0000       2.579188        70.1833 
  67   0.0000       2.678222        72.8781 
  68   0.0000       2.678294        72.8801 
  69   0.0000       2.700133        73.4743 
  70   0.0000       2.860214        77.8304 
  71   0.0000       2.970441        80.8298 
  72   0.0000       3.012072        81.9626 
  73   0.0000       3.012108        81.9636 
  74   0.0000       3.126648        85.0804 
  75   0.0000       3.126684        85.0814 
  76   0.0000       3.165275        86.1315 
  77   0.0000       3.239162        88.1421 
  78   0.0000       3.273903        89.0874 
  79   0.0000       3.339321        90.8675 
  80   0.0000       3.339387        90.8694 
  81   0.0000       3.482065        94.7518 
  82   0.0000       3.509995        95.5118 
  83   0.0000       3.510043        95.5131 
  84   0.0000       3.748995       102.0153 
  85   0.0000       3.749053       102.0169 
  86   0.0000       3.907760       106.3355 
  87   0.0000       3.907777       106.3360 
  88   0.0000       3.915218       106.5385 
  89   0.0000       4.268458       116.1506 
  90   0.0000       4.302894       117.0877 
  91   0.0000       4.302916       117.0883 
  92   0.0000       4.452467       121.1578 
  93   0.0000       4.452564       121.1604 
  94   0.0000       4.580478       124.6412 
  95   0.0000       4.755611       129.4068 
  96   0.0000      22.335781       607.7875 
  97   0.0000      22.378117       608.9395 

                    ********************************
                    * MULLIKEN POPULATION ANALYSIS *
                    ********************************

-----------------------
MULLIKEN ATOMIC CHARGES
-----------------------
   0 C :   -0.344220
   1 C :   -0.343805
   2 H :    0.114707
   3 H :    0.114649
   4 H :    0.114743
   5 H :    0.114624
   6 H :    0.114647
   7 H :    0.114656
Sum of atomic charges:    0.0000000

--------------------------------
MULLIKEN REDUCED ORBITAL CHARGES
--------------------------------
  0 C s       :     3.229592  s :     3.229592
      pz      :     1.050693  p :     3.051378
      px      :     0.949389
      py      :     1.051296
      dz2     :     0.004686  d :     0.059801
      dxz     :     0.020896
      dyz     :     0.006529
      dx2y2   :     0.009184
      dxy     :     0.018507
      f0      :     0.000586  f :     0.003448
      f+1     :     0.000474
      f-1     :     0.000072
      f+2     :     0.000938
      f-2     :    -0.000038
      f+3     :     0.000590
      f-3     :     0.000826
  1 C s       :     3.229364  s :     3.229364
      pz      :     1.050556  p :     3.051192
      px      :     0.949422
      py      :     1.051214
      dz2     :     0.004845  d :     0.059802
      dxz     :     0.020809
      dyz     :     0.006393
      dx2y2   :     0.009160
      dxy     :     0.018595
      f0      :     0.000472  f :     0.003447
      f+1     :     0.000451
      f-1     :     0.000291
      f+2     :     0.000818
      f-2     :    -0.000026
      f+3     :     0.000602
      f-3     :     0.000840
  2 H s       :     0.864254  s :     0.864254
      pz      :     0.005929  p :     0.021039
      px      :     0.005360
      py      :     0.009750
  3 H s       :     0.864303  s :     0.864303
      pz      :     0.010569  p :     0.021048
      px      :     0.006062
      py      :     0.004417
  4 H s       :     0.864213  s :     0.864213
      pz      :     0.006642  p :     0.021044
      px      :     0.005393
      py      :     0.009009
  5 H s       :     0.864331  s :     0.864331
      pz      :     0.007783  p :     0.021046
      px      :     0.005333
      py      :     0.007930
  6 H s       :     0.864311  s :     0.864311
      pz      :     0.005090  p :     0.021042
      px      :     0.005426
      py      :     0.010525
  7 H s       :     0.864301  s :     0.864301
      pz      :     0.010265  p :     0.021043
      px      :     0.006056
      py      :     0.004722


                     *******************************
                     * LOEWDIN POPULATION ANALYSIS *
                     *******************************

----------------------
LOEWDIN ATOMIC CHARGES
----------------------
   0 C :   -0.348409
   1 C :   -0.348370
   2 H :    0.116133
   3 H :    0.116131
   4 H :    0.116144
   5 H :    0.116136
   6 H :    0.116110
   7 H :    0.116125

-------------------------------
LOEWDIN REDUCED ORBITAL CHARGES
-------------------------------
  0 C s       :     2.842328  s :     2.842328
      pz      :     1.077916  p :     3.218061
      px      :     1.062146
      py      :     1.077999
      dz2     :     0.029141  d :     0.263530
      dxz     :     0.078223
      dyz     :     0.033610
      dx2y2   :     0.054396
      dxy     :     0.068160
      f0      :     0.003618  f :     0.024489
      f+1     :     0.003969
      f-1     :     0.000572
      f+2     :     0.004712
      f-2     :     0.002020
      f+3     :     0.003715
      f-3     :     0.005883
  1 C s       :     2.842313  s :     2.842313
      pz      :     1.077889  p :     3.218032
      px      :     1.062156
      py      :     1.077987
      dz2     :     0.030444  d :     0.263535
      dxz     :     0.077541
      dyz     :     0.032554
      dx2y2   :     0.054151
      dxy     :     0.068846
      f0      :     0.003058  f :     0.024490
      f+1     :     0.003808
      f-1     :     0.001524
      f+2     :     0.004307
      f-2     :     0.002166
      f+3     :     0.003731
      f-3     :     0.005895
  2 H s       :     0.822050  s :     0.822050
      pz      :     0.017815  p :     0.061818
      px      :     0.014887
      py      :     0.029116
  3 H s       :     0.822050  s :     0.822050
      pz      :     0.031662  p :     0.061819
      px      :     0.016602
      py      :     0.013555
  4 H s       :     0.822044  s :     0.822044
      pz      :     0.019957  p :     0.061812
      px      :     0.014952
      py      :     0.026903
  5 H s       :     0.822056  s :     0.822056
      pz      :     0.023154  p :     0.061808
      px      :     0.014816
      py      :     0.023838
  6 H s       :     0.822060  s :     0.822060
      pz      :     0.015480  p :     0.061829
      px      :     0.015036
      py      :     0.031313
  7 H s       :     0.822054  s :     0.822054
      pz      :     0.030800  p :     0.061821
      px      :     0.016593
      py      :     0.014428


                      *****************************
                      * MAYER POPULATION ANALYSIS *
                      *****************************

  NA   - Mulliken gross atomic population
  ZA   - Total nuclear charge
  QA   - Mulliken gross atomic charge
  VA   - Mayer's total valence
  BVA  - Mayer's bonded valence
  FA   - Mayer's free valence

  ATOM       NA         ZA         QA         VA         BVA        FA
  0 C      6.3442     6.0000    -0.3442     3.9185     3.9185     0.0000
  1 C      6.3438     6.0000    -0.3438     3.9184     3.9184     0.0000
  2 H      0.8853     1.0000     0.1147     0.9684     0.9684     0.0000
  3 H      0.8854     1.0000     0.1146     0.9684     0.9684     0.0000
  4 H      0.8853     1.0000     0.1147     0.9684     0.9684     0.0000
  5 H      0.8854     1.0000     0.1146     0.9684     0.9684     0.0000
  6 H      0.8854     1.0000     0.1146     0.9684     0.9684     0.0000
  7 H      0.8853     1.0000     0.1147     0.9684     0.9684     0.0000

  Mayer bond orders larger than 0.100000
B(  0-C ,  1-C ) :   1.0062 B(  0-C ,  2-H ) :   0.9732 B(  0-C ,  3-H ) :   0.9733 
B(  0-C ,  4-H ) :   0.9733 B(  1-C ,  5-H ) :   0.9733 B(  1-C ,  6-H ) :   0.9732 
B(  1-C ,  7-H ) :   0.9732 

-------
TIMINGS
-------

Total SCF time: 0 days 0 hours 0 min 3 sec 

Total time                  ....       3.833 sec
Sum of individual times     ....       3.645 sec  ( 95.1%)

Fock matrix formation       ....       2.928 sec  ( 76.4%)
  Split-RI-J                ....       0.257 sec  (  8.8% of F)
  Chain of spheres X        ....       1.744 sec  ( 59.6% of F)
  XC integration            ....       0.655 sec  ( 22.4% of F)
    Basis function eval.    ....       0.139 sec  ( 21.2% of XC)
    Density eval.           ....       0.117 sec  ( 17.9% of XC)
    XC-Functional eval.     ....       0.024 sec  (  3.7% of XC)
    XC-Potential eval.      ....       0.135 sec  ( 20.6% of XC)
Diagonalization             ....       0.030 sec  (  0.8%)
Density matrix formation    ....       0.002 sec  (  0.1%)
Population analysis         ....       0.016 sec  (  0.4%)
Initial guess               ....       0.044 sec  (  1.1%)
Orbital Transformation      ....       0.000 sec  (  0.0%)
Orbital Orthonormalization  ....       0.000 sec  (  0.0%)
DIIS solution               ....       0.023 sec  (  0.6%)
SOSCF solution              ....       0.022 sec  (  0.6%)
Grid generation             ....       0.580 sec  ( 15.1%)

Maximum memory used throughout the entire SCF-calculation: 60.4 MB

-------------------------   --------------------
FINAL SINGLE POINT ENERGY       -79.749757200438
-------------------------   --------------------



           ************************************************************
           *        Program running with 5 parallel MPI-processes     *
           *              working on a common directory               *
           ************************************************************
------------------------------------------------------------------------------
                         ORCA SCF GRADIENT CALCULATION
------------------------------------------------------------------------------

 ... reading COSX grid (gridx3)
Gradient of the Kohn-Sham DFT energy:
Kohn-Sham wavefunction type      ... RKS
Hartree-Fock exchange scaling    ...    0.250
Number of operators              ...    1
Number of atoms                  ...    8
Basis set dimensions             ...   98
Integral neglect threshold       ... 2.5e-11
Integral primitive cutoff        ... 2.5e-12
SHARK Integral package           ... ON

Nuc. rep. gradient       (SHARK) ... done (  0.0 sec)
HCore & Overlap gradient (SHARK) ... done (  0.0 sec)
RI-J gradient            (SHARK) ... done (  0.1 sec)
COSX-gradient                    ... done (  0.4 sec)
Exchange-correlation gradient    ... done

------------------
CARTESIAN GRADIENT
------------------

   1   C   :   -0.010847763   -0.000127166    0.000813548
   2   C   :    0.010837279    0.000178411   -0.000778633
   3   H   :    0.001804934   -0.000673265    0.000802703
   4   H   :    0.001649468   -0.000510697   -0.001203818
   5   H   :    0.001719906    0.001203341   -0.000013356
   6   H   :   -0.001794261   -0.000424639   -0.000978757
   7   H   :   -0.001732662    0.001101149    0.000391884
   8   H   :   -0.001670176   -0.000753812    0.001001862

Difference to translation invariance:
           :   -0.0000332734   -0.0000066778    0.0000354325

Difference to rotation invariance:
           :   -0.0000434755   -0.0003586296    0.0002199692

Norm of the cartesian gradient     ...    0.0162085301
RMS gradient                       ...    0.0033085523
MAX gradient                       ...    0.0108477628

-------
TIMINGS
-------

Total SCF gradient time            ...        0.876 sec

One electron gradient       ....       0.010 sec  (  1.1%)
RI-J Coulomb gradient       ....       0.065 sec  (  7.4%)
COSX gradient               ....       0.415 sec  ( 47.4%)
XC gradient                 ....       0.244 sec  ( 27.9%)

Maximum memory used throughout the entire SCFGRAD-calculation: 35.2 MB

                            ***************************************
                            *     ORCA property calculations      *
                            ***************************************

                                    ---------------------
                                    Active property flags
                                    ---------------------
   (+) Dipole Moment
   (+) Chemical Shifts
   (+) Nuclear properties (Hyperfine,Quadrupole)


------------------------------------------------------------------------------
                       ORCA ELECTRIC PROPERTIES CALCULATION
------------------------------------------------------------------------------

Dipole Moment Calculation                       ... on
Quadrupole Moment Calculation                   ... off
Polarizability Calculation                      ... off
GBWName                                         ... C2N2_50.gbw
Electron density                                ... C2N2_50.scfp
The origin for moment calculation is the CENTER OF MASS  = ( 3.150371,  0.414129 -0.167436)

-------------
DIPOLE MOMENT
-------------
                                X             Y             Z
Electronic contribution:      0.00002       0.00014      -0.00004
Nuclear contribution   :     -0.00006      -0.00012      -0.00001
                        -----------------------------------------
Total Dipole Moment    :     -0.00004       0.00002      -0.00005
                        -----------------------------------------
Magnitude (a.u.)       :      0.00006
Magnitude (Debye)      :      0.00016



--------------------
Rotational spectrum 
--------------------
 
Rotational constants in cm-1:     2.659367     0.665332     0.665326 
Rotational constants in MHz : 79725.822354 19946.154370 19945.976857 

 Dipole components along the rotational axes: 
x,y,z [a.u.] :     0.000031    -0.000008     0.000055 
x,y,z [Debye]:     0.000080    -0.000020     0.000141 

 


           ************************************************************
           *        Program running with 5 parallel MPI-processes     *
           *              working on a common directory               *
           ************************************************************
------------------------------------------------------------------------------
                                ORCA EPR/NMR CALCULATION
------------------------------------------------------------------------------

GBWName                      ... C2N2_50.gbw
Electron density             ... C2N2_50.scfp
Spin density                 ... C2N2_50.scfr
Treatment of gauge           ... GIAO (approximations 1/2el = 0,0)
Details of the CP(SCF) procedure:
       Solver   = POPLE   
       MaxIter  =    64   
       Tolerance=    1.000e-04
       COSX Grid=     1   
       Op-0     =   0-  8 =>   9- 97
Multiplicity                 ... 1
g-tensor                     ... 0
NMR chemical shifts          ... 1
NMR spin-spin couplings      ... 0
NMR spectrum                 ... 0
Number of nuclei for epr/nmr ... 8
   Nucleus:   0C 
       Hyperfine : Isotope=   13 I=   0.500 P= 134.190
       Quadrupole: Isotope=   13 I=   0.500 Q=   0.000
       Spin-Orbit: Zeff=   3.600
       Nuclear Spin-Spin: Gn=   0.000
       EPRNMR Input: 
       rho(0)=N f(grad)=N a(iso)=N a(dip)=N a(orb)=N sigma(nmr)=Y spin-spin(nmr)=all-N,DSO-N,PSO-N,FC-N,SD-N
   Nucleus:   1C 
       Hyperfine : Isotope=   13 I=   0.500 P= 134.190
       Quadrupole: Isotope=   13 I=   0.500 Q=   0.000
       Spin-Orbit: Zeff=   3.600
       Nuclear Spin-Spin: Gn=   0.000
       EPRNMR Input: 
       rho(0)=N f(grad)=N a(iso)=N a(dip)=N a(orb)=N sigma(nmr)=Y spin-spin(nmr)=all-N,DSO-N,PSO-N,FC-N,SD-N
   Nucleus:   2H 
       Hyperfine : Isotope=    1 I=   0.500 P= 533.551
       Quadrupole: Isotope=    2 I=   1.000 Q=   0.003
       Spin-Orbit: Zeff=   1.000
       Nuclear Spin-Spin: Gn=   0.000
       EPRNMR Input: 
       rho(0)=N f(grad)=N a(iso)=N a(dip)=N a(orb)=N sigma(nmr)=Y spin-spin(nmr)=all-N,DSO-N,PSO-N,FC-N,SD-N
   Nucleus:   3H 
       Hyperfine : Isotope=    1 I=   0.500 P= 533.551
       Quadrupole: Isotope=    2 I=   1.000 Q=   0.003
       Spin-Orbit: Zeff=   1.000
       Nuclear Spin-Spin: Gn=   0.000
       EPRNMR Input: 
       rho(0)=N f(grad)=N a(iso)=N a(dip)=N a(orb)=N sigma(nmr)=Y spin-spin(nmr)=all-N,DSO-N,PSO-N,FC-N,SD-N
   Nucleus:   4H 
       Hyperfine : Isotope=    1 I=   0.500 P= 533.551
       Quadrupole: Isotope=    2 I=   1.000 Q=   0.003
       Spin-Orbit: Zeff=   1.000
       Nuclear Spin-Spin: Gn=   0.000
       EPRNMR Input: 
       rho(0)=N f(grad)=N a(iso)=N a(dip)=N a(orb)=N sigma(nmr)=Y spin-spin(nmr)=all-N,DSO-N,PSO-N,FC-N,SD-N
   Nucleus:   5H 
       Hyperfine : Isotope=    1 I=   0.500 P= 533.551
       Quadrupole: Isotope=    2 I=   1.000 Q=   0.003
       Spin-Orbit: Zeff=   1.000
       Nuclear Spin-Spin: Gn=   0.000
       EPRNMR Input: 
       rho(0)=N f(grad)=N a(iso)=N a(dip)=N a(orb)=N sigma(nmr)=Y spin-spin(nmr)=all-N,DSO-N,PSO-N,FC-N,SD-N
   Nucleus:   6H 
       Hyperfine : Isotope=    1 I=   0.500 P= 533.551
       Quadrupole: Isotope=    2 I=   1.000 Q=   0.003
       Spin-Orbit: Zeff=   1.000
       Nuclear Spin-Spin: Gn=   0.000
       EPRNMR Input: 
       rho(0)=N f(grad)=N a(iso)=N a(dip)=N a(orb)=N sigma(nmr)=Y spin-spin(nmr)=all-N,DSO-N,PSO-N,FC-N,SD-N
   Nucleus:   7H 
       Hyperfine : Isotope=    1 I=   0.500 P= 533.551
       Quadrupole: Isotope=    2 I=   1.000 Q=   0.003
       Spin-Orbit: Zeff=   1.000
       Nuclear Spin-Spin: Gn=   0.000
       EPRNMR Input: 
       rho(0)=N f(grad)=N a(iso)=N a(dip)=N a(orb)=N sigma(nmr)=Y spin-spin(nmr)=all-N,DSO-N,PSO-N,FC-N,SD-N
Forming RHS of the CP-SCF equations         ... 
Calculating right hand sides for GIAO treatment        ... 
  Entering RightHandSide GIAO. ScalHFX=    0.2500 NeedHFX=1
     -> 1-electron GIAO integrals will be done analytically
     -> RIJCOSX used in SCF. Same chosen for GIAO calculation.
     Making grid for GIAO integrations   ...

GRID GIAO
---------

General Integration Accuracy     IntAcc      ... 4.388
Radial Grid Type                 RadialGrid  ... OptM3 with GC (2021)
Angular Grid (max. ang.)         AngularGrid ... 4 (Lebedev-302)
Angular grid pruning method      GridPruning ... 4 (adaptive)
Weight generation scheme         WeightScheme... Becke
Basis function cutoff            BFCut       ... 1.0000e-11
Integration weight cutoff        WCut        ... 1.0000e-14
Angular grids for H and He will be reduced by one unit
Partially contracted basis set               ... off
Rotationally invariant grid construction     ... off

Total number of grid points                  ...    31677
Total number of batches                      ...      498
Average number of points per batch           ...       63
Average number of grid points per atom       ...     3960

  One-electron GIAO integrals (SHARK)     ... done
  Calculating G(B)[P]                     ... (RI-J: SHARK-ok) (COSX-ok) (add-J+K:ok) => dG/dB done
  DFT XC-terms                            ... done
  Extracting occupied and virtual blocks  ... 
  Operator  0  NO=   9 NV=  89 
  Transforming and RHS contribution       ... done
  Adding eps_i * S(B)_ai terms            ... done
  Projecting overlap derivatives          ... done
  Building G[dS/dB_ij] (COSX)             ... done
  Transforming to MO basis                ... done
  Summing G[dS/dB_ij] into RHS contribs.  ... done

  GIAO profiling information: 
    Total GIAO time               ...       0.9 sec
       GIAO 1-electron integrals  ...       0.0 sec (  0.5%)
       GIAO G(dS/dB) terms        ...       0.1 sec ( 11.0%)
       GIAO RI-J                  ...       0.1 sec (  7.6%)
       GIAO COSX                  ...       0.2 sec ( 22.1%)
       GIAO XC-terms              ...       0.4 sec ( 45.8%)
       Right hand side assembly   ...       0.0 sec (  0.1%)

  GIAO right hand side done


------------------------------------------------------------------------------
                           ORCA CP-SCF CALCULATION
------------------------------------------------------------------------------

Input orbitals are from        ... C2N2_50.gbw
Input Perturbation             ... C2N2_50.pin.tmp
Wavefunction output            ... C2N2_50.pout.tmp
Perturbation mode              ... Imaginary perturbation
Solver                         ... POPLE
Max. number of iterations      ... 64
Convergence tolerance          ... 1.000e-04
Integral handling              ... Direct
DFT GridXC                     ... 1
COSX GridX                     ... 1
COSX IntAccX                   ... 3.067
COSX Algorithm                 ... Auto
Number of perturbations        ... 3
Number of operators            ... 1
Orbital ranges used for CP-SCF:
 Operator 0:  Orbitals   0...  8  to   9... 97
Variables per perturbation     ... 801
DFT calculation                         ... on
XC functional terms                     ... off
Hybrid DFT                              ... on
   Exchange mixing (SCF)                ...  0.250
   Exchange mixing (CP-SCF)             ...  0.250
   GGA exch. scaling(SCF)               ...  0.750
   GGA exch. scaling (CP-SCF)           ...  0.750
   GGA corr. scaling (SCF)              ...  1.000
   GGA corr. scaling (CP-SCF)           ...  1.000

CP-SCF GRID
-----------

General Integration Accuracy     IntAcc      ... 3.467
Radial Grid Type                 RadialGrid  ... OptM3 with GC (2021)
Angular Grid (max. ang.)         AngularGrid ... 1 (Lebedev-50)
Angular grid pruning method      GridPruning ... 4 (adaptive)
Weight generation scheme         WeightScheme... Becke
Basis function cutoff            BFCut       ... 1.0000e-11
Integration weight cutoff        WCut        ... 1.0000e-14
Angular grids for H and He will be reduced by one unit
Partially contracted basis set               ... off
Rotationally invariant grid construction     ... off

Total number of grid points                  ...     4379
Total number of batches                      ...       72
Average number of points per batch           ...       60
Average number of grid points per atom       ...      547

CP-SCF GRIDX
------------

General Integration Accuracy     IntAcc      ... 3.067
Radial Grid Type                 RadialGrid  ... OptM3 with GC (2021)
Angular Grid (max. ang.)         AngularGrid ... 1 (Lebedev-50)
Angular grid pruning method      GridPruning ... 4 (adaptive)
Weight generation scheme         WeightScheme... Becke
Basis function cutoff            BFCut       ... 1.0000e-11
Integration weight cutoff        WCut        ... 1.0000e-14
Angular grids for H and He will be reduced by one unit
Partially contracted basis set               ... on
Rotationally invariant grid construction     ... off

Total number of grid points                  ...     2064
Total number of batches                      ...       37
Average number of points per batch           ...       55
Average number of grid points per atom       ...      258

Memory available               ... 1014.3 MB
Memory needed per perturbation ...   0.4 MB
Perturbations treated per batch... 3
Number of batches              ... 1
     CP-SCF ITERATION   0:   2.0333e-01 (   0.1 sec   0/  3 done)
     CP-SCF ITERATION   1:   2.1534e-03 (   0.1 sec   0/  3 done)
     CP-SCF ITERATION   2:   8.3054e-05 (   0.1 sec   3/  3 done)
                    *** THE CP-SCF HAS CONVERGED ***

Forming final perturbed densities           ... done
Transforming perturbed density to AO basis  ... done

Magnetic field perturbation calculated in  1.251 sec

---------------
CHEMICAL SHIFTS
---------------

Note: using conversion factor for au to ppm alpha^2/2 =   26.625677252 
GIAO: Analytic para- and diamagnetic shielding integrals (SHARK)       ...done
 --------------
 Nucleus   0C :
 --------------

Diamagnetic contribution to the shielding tensor (ppm) : 
           253.735         -0.400        -0.941
             0.080        243.146        -0.040
            -0.899          0.068       243.222

Paramagnetic contribution to the shielding tensor (ppm): 
           -65.813          0.422        -0.160
             0.101        -69.075         1.034
            -0.182         -1.102       -69.050

Total shielding tensor (ppm): 
           187.922          0.022        -1.101
             0.180        174.071         0.994
            -1.081         -1.034       174.172


 Diagonalized sT*s matrix:
 
 sDSO           243.149          243.143          253.811  iso=     246.701
 sPSO           -69.085          -69.050          -65.802  iso=     -67.979
        ---------------  ---------------  ---------------
 Total          174.064          174.092          188.009  iso=     178.722

 --------------
 Nucleus   1C :
 --------------

Diamagnetic contribution to the shielding tensor (ppm) : 
           253.690          0.621        -1.357
             0.145        235.247         0.131
            -1.520         -0.179       235.357

Paramagnetic contribution to the shielding tensor (ppm): 
           -65.770         -0.442         0.275
            -0.114        -61.175        -1.161
             0.429          1.170       -61.213

Total shielding tensor (ppm): 
           187.919          0.179        -1.083
             0.031        174.072        -1.030
            -1.091          0.991       174.144


 Diagonalized sT*s matrix:
 
 sDSO           235.249          235.238          253.807  iso=     241.431
 sPSO           -61.198          -61.160          -65.801  iso=     -62.719
        ---------------  ---------------  ---------------
 Total          174.052          174.078          188.005  iso=     178.712

 --------------
 Nucleus   2H :
 --------------

Diamagnetic contribution to the shielding tensor (ppm) : 
            29.263          4.333        -2.621
             2.472         36.095        -4.956
            -1.725         -5.092        28.329

Paramagnetic contribution to the shielding tensor (ppm): 
             2.238         -0.516         0.482
             0.296         -3.716         1.851
             0.099          1.870         0.259

Total shielding tensor (ppm): 
            31.501          3.817        -2.139
             2.768         32.378        -3.106
            -1.626         -3.222        28.588


 Diagonalized sT*s matrix:
 
 sDSO            25.899           28.505           39.282  iso=      31.229
 sPSO             0.896            0.311           -2.426  iso=      -0.406
        ---------------  ---------------  ---------------
 Total           26.795           28.816           36.856  iso=      30.822

 --------------
 Nucleus   3H :
 --------------

Diamagnetic contribution to the shielding tensor (ppm) : 
            30.228         -0.614         6.274
            -0.078         25.924        -1.075
             3.961         -1.002        37.364

Paramagnetic contribution to the shielding tensor (ppm): 
             2.230          0.254        -1.691
            -0.196          0.889         0.852
            -0.548          0.742        -4.166

Total shielding tensor (ppm): 
            32.457         -0.360         4.583
            -0.274         26.813        -0.222
             3.412         -0.260        33.198


 Diagonalized sT*s matrix:
 
 sDSO            25.891           28.294           39.331  iso=      31.172
 sPSO             0.905            0.523           -2.474  iso=      -0.349
        ---------------  ---------------  ---------------
 Total           26.795           28.816           36.857  iso=      30.823

 --------------
 Nucleus   4H :
 --------------

Diamagnetic contribution to the shielding tensor (ppm) : 
            28.892         -4.572        -3.217
            -2.455         34.055         6.004
            -1.654          6.195        30.352

Paramagnetic contribution to the shielding tensor (ppm): 
             2.618          1.144         0.419
             0.002         -2.293        -2.624
            -0.488         -2.771        -1.157

Total shielding tensor (ppm): 
            31.509         -3.428        -2.798
            -2.453         31.762         3.380
            -2.142          3.424        29.195


 Diagonalized sT*s matrix:
 
 sDSO            25.932           27.972           39.394  iso=      31.099
 sPSO             0.862            0.845           -2.539  iso=      -0.277
        ---------------  ---------------  ---------------
 Total           26.795           28.817           36.855  iso=      30.822

 --------------
 Nucleus   5H :
 --------------

Diamagnetic contribution to the shielding tensor (ppm) : 
            29.042         -3.413        -3.933
            -4.966         27.865         5.769
            -5.088          5.591        28.153

Paramagnetic contribution to the shielding tensor (ppm): 
             2.418          0.348         0.830
             2.765          2.540        -2.117
             2.777         -1.829         2.450

Total shielding tensor (ppm): 
            31.460         -3.065        -3.103
            -2.201         30.405         3.652
            -2.311          3.762        30.603


 Diagonalized sT*s matrix:
 
 sDSO            22.327           24.788           37.945  iso=      28.353
 sPSO             4.468            4.030           -1.090  iso=       2.469
        ---------------  ---------------  ---------------
 Total           26.795           28.818           36.855  iso=      30.823

 --------------
 Nucleus   6H :
 --------------

Diamagnetic contribution to the shielding tensor (ppm) : 
            28.801          5.439        -2.105
             6.694         32.322        -3.404
            -2.657         -3.360        23.545

Paramagnetic contribution to the shielding tensor (ppm): 
             2.756         -1.351         0.364
            -3.725          1.026         1.268
             1.272          1.174         4.021

Total shielding tensor (ppm): 
            31.557          4.087        -1.740
             2.969         33.349        -2.137
            -1.385         -2.186        27.566


 Diagonalized sT*s matrix:
 
 sDSO            22.360           24.252           38.055  iso=      28.223
 sPSO             4.437            4.565           -1.199  iso=       2.601
        ---------------  ---------------  ---------------
 Total           26.797           28.817           36.857  iso=      30.824

 --------------
 Nucleus   7H :
 --------------

Diamagnetic contribution to the shielding tensor (ppm) : 
            30.475         -1.192         5.789
            -1.683         22.932        -2.277
             7.314         -2.388        31.436

Paramagnetic contribution to the shielding tensor (ppm): 
             1.980          0.209        -1.302
             0.946          4.268         0.707
            -3.975          0.866         1.380

Total shielding tensor (ppm): 
            32.455         -0.983         4.488
            -0.737         27.200        -1.571
             3.339         -1.522        32.817


 Diagonalized sT*s matrix:
 
 sDSO            22.320           24.519           38.004  iso=      28.281
 sPSO             4.476            4.300           -1.147  iso=       2.543
        ---------------  ---------------  ---------------
 Total           26.796           28.819           36.857  iso=      30.824



--------------------------------
CHEMICAL SHIELDING SUMMARY (ppm)
--------------------------------


  Nucleus  Element    Isotropic     Anisotropy
  -------  -------  ------------   ------------
      0       C          178.722         13.931 
      1       C          178.712         13.940 
      2       H           30.822          9.051 
      3       H           30.823          9.052 
      4       H           30.822          9.050 
      5       H           30.823          9.048 
      6       H           30.824          9.050 
      7       H           30.824          9.050 



Maximum memory used throughout the entire EPRNMR-calculation: 13.0 MB

----------------------------------------------------------------------------
                           ORCA NUMERICAL FREQUENCIES
                              (5-process run)
----------------------------------------------------------------------------

Number of atoms                ... 8
Central differences            ... used
Number of displacements        ... 48
Numerical increment            ... 5.000e-03 bohr
IR-spectrum generation         ... on
Raman-spectrum generation      ... off
Surface Crossing Hessian       ... off

The output will be reduced. Please look at the following files:
SCF program output             ... >C2N2_50.lastscf
Integral program output        ... >C2N2_50.lastint
Gradient program output        ... >C2N2_50.lastgrad
Dipole moment program output   ... >C2N2_50.lastmom
AutoCI program output          ... >C2N2_50.lastautoci

	<< Calculating on displaced geometry   3 (of  48) >>
	<< Calculating on displaced geometry   4 (of  48) >>
	<< Calculating on displaced geometry   5 (of  48) >>
	<< Calculating on displaced geometry   1 (of  48) >>
	<< Calculating on displaced geometry   2 (of  48) >>
	<< Calculating on displaced geometry   7 (of  48) >>
	<< Calculating on displaced geometry   6 (of  48) >>
	<< Calculating on displaced geometry   8 (of  48) >>
	<< Calculating on displaced geometry   9 (of  48) >>
	<< Calculating on displaced geometry  10 (of  48) >>
	<< Calculating on displaced geometry  11 (of  48) >>
	<< Calculating on displaced geometry  13 (of  48) >>
	<< Calculating on displaced geometry  12 (of  48) >>
	<< Calculating on displaced geometry  15 (of  48) >>
	<< Calculating on displaced geometry  14 (of  48) >>
	<< Calculating on displaced geometry  16 (of  48) >>
	<< Calculating on displaced geometry  18 (of  48) >>
	<< Calculating on displaced geometry  17 (of  48) >>
	<< Calculating on displaced geometry  19 (of  48) >>
	<< Calculating on displaced geometry  20 (of  48) >>
	<< Calculating on displaced geometry  22 (of  48) >>
	<< Calculating on displaced geometry  21 (of  48) >>
	<< Calculating on displaced geometry  23 (of  48) >>
	<< Calculating on displaced geometry  24 (of  48) >>
	<< Calculating on displaced geometry  25 (of  48) >>
	<< Calculating on displaced geometry  26 (of  48) >>
	<< Calculating on displaced geometry  27 (of  48) >>
	<< Calculating on displaced geometry  28 (of  48) >>
	<< Calculating on displaced geometry  29 (of  48) >>
	<< Calculating on displaced geometry  30 (of  48) >>
	<< Calculating on displaced geometry  31 (of  48) >>
	<< Calculating on displaced geometry  32 (of  48) >>
	<< Calculating on displaced geometry  33 (of  48) >>
	<< Calculating on displaced geometry  34 (of  48) >>
	<< Calculating on displaced geometry  35 (of  48) >>
	<< Calculating on displaced geometry  36 (of  48) >>
	<< Calculating on displaced geometry  37 (of  48) >>
	<< Calculating on displaced geometry  40 (of  48) >>
	<< Calculating on displaced geometry  39 (of  48) >>
	<< Calculating on displaced geometry  38 (of  48) >>
	<< Calculating on displaced geometry  41 (of  48) >>
	<< Calculating on displaced geometry  42 (of  48) >>
	<< Calculating on displaced geometry  43 (of  48) >>
	<< Calculating on displaced geometry  45 (of  48) >>
	<< Calculating on displaced geometry  44 (of  48) >>
	<< Calculating on displaced geometry  46 (of  48) >>
	<< Calculating on displaced geometry  47 (of  48) >>
	<< Calculating on displaced geometry  48 (of  48) >>

-----------------------
VIBRATIONAL FREQUENCIES
-----------------------

Scaling factor for frequencies =  1.000000000 (already applied!)

   0:         0.00 cm**-1
   1:         0.00 cm**-1
   2:         0.00 cm**-1
   3:         0.00 cm**-1
   4:         0.00 cm**-1
   5:         0.00 cm**-1
   6:       311.63 cm**-1
   7:       828.90 cm**-1
   8:       829.67 cm**-1
   9:       988.85 cm**-1
  10:      1215.13 cm**-1
  11:      1215.60 cm**-1
  12:      1385.02 cm**-1
  13:      1396.56 cm**-1
  14:      1492.48 cm**-1
  15:      1492.93 cm**-1
  16:      1494.82 cm**-1
  17:      1495.32 cm**-1
  18:      3045.63 cm**-1
  19:      3046.77 cm**-1
  20:      3112.72 cm**-1
  21:      3113.33 cm**-1
  22:      3136.72 cm**-1
  23:      3137.13 cm**-1


------------
NORMAL MODES
------------

These modes are the cartesian displacements weighted by the diagonal matrix
M(i,i)=1/sqrt(m[i]) where m[i] is the mass of the displaced atom
Thus, these vectors are normalized but *not* orthogonal

                  0          1          2          3          4          5    
      0       0.000000   0.000000   0.000000   0.000000   0.000000   0.000000
      1       0.000000   0.000000   0.000000   0.000000   0.000000   0.000000
      2       0.000000   0.000000   0.000000   0.000000   0.000000   0.000000
      3       0.000000   0.000000   0.000000   0.000000   0.000000   0.000000
      4       0.000000   0.000000   0.000000   0.000000   0.000000   0.000000
      5       0.000000   0.000000   0.000000   0.000000   0.000000   0.000000
      6       0.000000   0.000000   0.000000   0.000000   0.000000   0.000000
      7       0.000000   0.000000   0.000000   0.000000   0.000000   0.000000
      8       0.000000   0.000000   0.000000   0.000000   0.000000   0.000000
      9       0.000000   0.000000   0.000000   0.000000   0.000000   0.000000
     10       0.000000   0.000000   0.000000   0.000000   0.000000   0.000000
     11       0.000000   0.000000   0.000000   0.000000   0.000000   0.000000
     12       0.000000   0.000000   0.000000   0.000000   0.000000   0.000000
     13       0.000000   0.000000   0.000000   0.000000   0.000000   0.000000
     14       0.000000   0.000000   0.000000   0.000000   0.000000   0.000000
     15       0.000000   0.000000   0.000000   0.000000   0.000000   0.000000
     16       0.000000   0.000000   0.000000   0.000000   0.000000   0.000000
     17       0.000000   0.000000   0.000000   0.000000   0.000000   0.000000
     18       0.000000   0.000000   0.000000   0.000000   0.000000   0.000000
     19       0.000000   0.000000   0.000000   0.000000   0.000000   0.000000
     20       0.000000   0.000000   0.000000   0.000000   0.000000   0.000000
     21       0.000000   0.000000   0.000000   0.000000   0.000000   0.000000
     22       0.000000   0.000000   0.000000   0.000000   0.000000   0.000000
     23       0.000000   0.000000   0.000000   0.000000   0.000000   0.000000
                  6          7          8          9         10         11    
      0      -0.004721  -0.001738  -0.003465   0.333933  -0.003117   0.010502
      1       0.000069   0.043832  -0.017481   0.002546   0.140529   0.027323
      2       0.000373  -0.017345  -0.043692  -0.026101  -0.027231   0.140001
      3       0.004721  -0.001203  -0.003345  -0.333761   0.003309  -0.010651
      4       0.000128   0.046072  -0.010326  -0.002594  -0.140789  -0.024864
      5      -0.000416  -0.010363  -0.045963   0.025953   0.024640  -0.140554
      6       0.018624   0.506677   0.081745   0.359537   0.477763  -0.133427
      7       0.184483  -0.144694   0.079901   0.007897  -0.074539  -0.108858
      8       0.363113  -0.004409   0.201378  -0.005167  -0.077781  -0.222409
      9      -0.008168  -0.189010  -0.458728   0.355846  -0.137636   0.471353
     10      -0.408618  -0.211883   0.068699  -0.020688  -0.260008  -0.059448
     11      -0.021428   0.058012   0.180846  -0.034539   0.014967  -0.090486
     12      -0.038650  -0.300630   0.416437   0.356317  -0.329229  -0.372876
     13       0.222680  -0.176874   0.024605   0.021083  -0.133230   0.066994
     14      -0.339358   0.118773   0.149357  -0.045420   0.164783  -0.151935
     15      -0.016659  -0.257919   0.445351  -0.359277   0.299095   0.396204
     16       0.279020  -0.190212   0.020495   0.008687   0.172813  -0.079349
     17      -0.296720   0.109753   0.136801   0.007189  -0.153550   0.113373
     18       0.040148   0.512488   0.031592  -0.355369  -0.489145   0.096891
     19       0.117711  -0.140851   0.063637   0.009972   0.055530   0.065953
     20       0.389037   0.001459   0.212669   0.050546   0.054989   0.249356
     21       0.004694  -0.236555  -0.435259  -0.359108   0.176868  -0.456375
     22      -0.397632  -0.206761   0.074008  -0.026378   0.242536   0.085417
     23      -0.094138   0.046578   0.187243   0.029147   0.027468   0.108696
                 12         13         14         15         16         17    
      0      -0.096018  -0.097189  -0.000074  -0.001781  -0.002461  -0.002611
      1      -0.000550  -0.000929   0.029679   0.001202   0.035596  -0.026353
      2       0.007406   0.007522   0.001916  -0.027242  -0.027562  -0.036634
      3      -0.090439   0.102700   0.001867  -0.000293  -0.003425  -0.001534
      4      -0.000972   0.001052   0.000259   0.024000   0.025821  -0.040509
      5       0.007201  -0.008034   0.023267   0.002454  -0.041053  -0.024620
      6       0.388595   0.364046  -0.313642   0.013944  -0.216110  -0.005027
      7      -0.144128  -0.137904   0.058716   0.241534   0.097644   0.221102
      8       0.044258   0.048662  -0.126562   0.439848  -0.030939   0.433867
      9       0.367987   0.343896   0.125088   0.254085   0.081978   0.200954
     10       0.012503   0.008511  -0.497738   0.183224  -0.401415   0.229635
     11      -0.194133  -0.187609  -0.080904  -0.121282  -0.087475  -0.103427
     12       0.386658   0.362076   0.205749  -0.226742   0.157335  -0.158396
     13       0.140108   0.138703  -0.148276  -0.259400  -0.179258  -0.226549
     14       0.061091   0.055924   0.359397   0.239236   0.359449   0.179215
     15       0.367394  -0.387179   0.008422   0.285705  -0.074533  -0.242190
     16       0.117243  -0.124283   0.310661   0.008186  -0.383717   0.047411
     17       0.076595  -0.088301  -0.296467   0.128726   0.357751  -0.205591
     18       0.363374  -0.382872   0.188225  -0.188290  -0.123839   0.237318
     19      -0.145660   0.160393  -0.162755  -0.030778   0.202352   0.005931
     20       0.017313  -0.015891  -0.297619  -0.332385   0.384251   0.327378
     21       0.347753  -0.365629  -0.235210  -0.113988   0.245312   0.016735
     22       0.038072  -0.046878   0.082656  -0.443065  -0.067432   0.519172
     23      -0.179167   0.193309   0.142087  -0.058772  -0.165452   0.098436
                 18         19         20         21         22         23    
      0      -0.035700   0.032097   0.004758  -0.001828  -0.004509   0.002456
      1      -0.000232   0.000313   0.016093   0.061994  -0.027021  -0.061611
      2       0.002737  -0.002413   0.062713  -0.017584  -0.060877   0.025317
      3       0.033330   0.034503  -0.005115   0.001422  -0.004860   0.002288
      4      -0.000174  -0.000140  -0.016224  -0.064551  -0.023038  -0.060594
      5      -0.002945  -0.003038  -0.063517   0.014633  -0.060964   0.024651
      6       0.121834  -0.111973   0.038305  -0.169762  -0.009638   0.179434
      7       0.356271  -0.333557   0.108424  -0.468294  -0.029728   0.485145
      8      -0.188723   0.175795  -0.040600   0.250684   0.000612  -0.258970
      9       0.170444  -0.157178  -0.227283   0.078171   0.218319  -0.106797
     10      -0.022080   0.021245   0.033996   0.004269  -0.033180   0.000973
     11       0.386205  -0.360735  -0.491802   0.171127   0.465678  -0.228636
     12       0.124145  -0.113583   0.131630   0.113715  -0.154757  -0.101896
     13      -0.331527   0.308550  -0.335978  -0.281681   0.385051   0.248048
     14      -0.229344   0.213677  -0.222034  -0.210413   0.259042   0.186047
     15      -0.113118  -0.119372  -0.145575  -0.096416  -0.154943  -0.071822
     16       0.273457   0.294228   0.336697   0.214469   0.349711   0.153981
     17       0.265678   0.284864   0.314563   0.225144   0.332308   0.166543
     18      -0.117383  -0.124128  -0.008920   0.184114   0.011252   0.182841
     19      -0.353356  -0.379995  -0.027654   0.523997   0.030695   0.510652
     20       0.117174   0.126339  -0.006983  -0.177379  -0.024336  -0.169985
     21      -0.157689  -0.167350   0.216091  -0.104995   0.201399  -0.138288
     22       0.082080   0.087476  -0.113924   0.037711  -0.106064   0.057356
     23      -0.348518  -0.374997   0.456429  -0.223998   0.418512  -0.290397


-----------
IR SPECTRUM
-----------

 Mode   freq       eps      Int      T**2         TX        TY        TZ
       cm**-1   L/(mol*cm) km/mol    a.u.
----------------------------------------------------------------------------
  6:    311.63   0.000020    0.10  0.000020  (-0.000160  0.004503 -0.000378)
  7:    828.90   0.001150    5.81  0.000433  ( 0.000635 -0.019990  0.005750)
  8:    829.67   0.001169    5.91  0.000440  ( 0.001828  0.006542  0.019842)
  9:    988.85   0.000000    0.00  0.000000  (-0.000011  0.000137  0.000045)
 10:   1215.13   0.000003    0.02  0.000001  (-0.000002 -0.000488 -0.000772)
 11:   1215.60   0.000006    0.03  0.000002  (-0.000059  0.001254  0.000099)
 12:   1385.02   0.000679    3.43  0.000153  ( 0.012322  0.000152 -0.001114)
 13:   1396.56   0.000001    0.00  0.000000  (-0.000345 -0.000116 -0.000082)
 14:   1492.48   0.000394    1.99  0.000082  (-0.000328 -0.007536 -0.005048)
 15:   1492.93   0.000204    1.03  0.000043  ( 0.000397 -0.005356  0.003725)
 16:   1494.82   0.001607    8.12  0.000336  ( 0.001292 -0.012538  0.013293)
 17:   1495.32   0.001815    9.17  0.000379  ( 0.001170  0.014750  0.012644)
 18:   3045.63   0.000015    0.07  0.000002  (-0.001180  0.000217  0.000272)
 19:   3046.77   0.010400   52.55  0.001065  ( 0.032548  0.000251 -0.002399)
 20:   3112.72   0.000001    0.01  0.000000  (-0.000219 -0.000308 -0.000028)
 21:   3113.33   0.000000    0.00  0.000000  (-0.000102  0.000149 -0.000004)
 22:   3136.72   0.009759   49.32  0.000971  (-0.002168 -0.012016 -0.028667)
 23:   3137.13   0.009844   49.75  0.000979  ( 0.001040 -0.029035  0.011623)

* The epsilon (eps) is given for a Dirac delta lineshape.
** The dipole moment derivative (T) already includes vibrational overlap.

The first frequency considered to be a vibration is 6
The total number of vibrations considered is 18


--------------------------
THERMOCHEMISTRY AT 298.15K
--------------------------

Temperature         ... 298.15 K
Pressure            ... 1.00 atm
Total Mass          ... 30.07 AMU

Throughout the following assumptions are being made:
  (1) The electronic state is orbitally nondegenerate
  (2) There are no thermally accessible electronically excited states
  (3) Hindered rotations indicated by low frequency modes are not
      treated as such but are treated as vibrations and this may
      cause some error
  (4) All equations used are the standard statistical mechanics
      equations for an ideal gas
  (5) All vibrations are strictly harmonic

freq.     311.63  E(vib)   ...       0.25 
freq.     828.90  E(vib)   ...       0.04 
freq.     829.67  E(vib)   ...       0.04 
freq.     988.85  E(vib)   ...       0.02 
freq.    1215.13  E(vib)   ...       0.01 
freq.    1215.60  E(vib)   ...       0.01 
freq.    1385.02  E(vib)   ...       0.00 
freq.    1396.56  E(vib)   ...       0.00 
freq.    1492.48  E(vib)   ...       0.00 
freq.    1492.93  E(vib)   ...       0.00 
freq.    1494.82  E(vib)   ...       0.00 
freq.    1495.32  E(vib)   ...       0.00 
freq.    3045.63  E(vib)   ...       0.00 
freq.    3046.77  E(vib)   ...       0.00 
freq.    3112.72  E(vib)   ...       0.00 
freq.    3113.33  E(vib)   ...       0.00 
freq.    3136.72  E(vib)   ...       0.00 
freq.    3137.13  E(vib)   ...       0.00 

------------
INNER ENERGY
------------

The inner energy is: U= E(el) + E(ZPE) + E(vib) + E(rot) + E(trans)
    E(el)   - is the total energy from the electronic structure calculation
              = E(kin-el) + E(nuc-el) + E(el-el) + E(nuc-nuc)
    E(ZPE)  - the the zero temperature vibrational energy from the frequency calculation
    E(vib)  - the the finite temperature correction to E(ZPE) due to population
              of excited vibrational states
    E(rot)  - is the rotational thermal energy
    E(trans)- is the translational thermal energy

Summary of contributions to the inner energy U:
Electronic energy                ...    -79.74975720 Eh
Zero point energy                ...      0.07458546 Eh      46.80 kcal/mol
Thermal vibrational correction   ...      0.00065219 Eh       0.41 kcal/mol
Thermal rotational correction    ...      0.00141627 Eh       0.89 kcal/mol
Thermal translational correction ...      0.00141627 Eh       0.89 kcal/mol
-----------------------------------------------------------------------
Total thermal energy                    -79.67168700 Eh


Summary of corrections to the electronic energy:
(perhaps to be used in another calculation)
Total thermal correction                  0.00348474 Eh       2.19 kcal/mol
Non-thermal (ZPE) correction              0.07458546 Eh      46.80 kcal/mol
-----------------------------------------------------------------------
Total correction                          0.07807020 Eh      48.99 kcal/mol


--------
ENTHALPY
--------

The enthalpy is H = U + kB*T
                kB is Boltzmann's constant
Total free energy                 ...    -79.67168700 Eh 
Thermal Enthalpy correction       ...      0.00094421 Eh       0.59 kcal/mol
-----------------------------------------------------------------------
Total Enthalpy                    ...    -79.67074279 Eh


Note: Rotational entropy computed according to Herzberg 
Infrared and Raman Spectra, Chapter V,1, Van Nostrand Reinhold, 1945 
Point Group:  D3, Symmetry Number:   6  
Rotational constants in cm-1:     2.659367     0.665332     0.665326 

Vibrational entropy computed according to the QRRHO of S. Grimme
Chem.Eur.J. 2012 18 9955


-------
ENTROPY
-------

The entropy contributions are T*S = T*(S(el)+S(vib)+S(rot)+S(trans))
     S(el)   - electronic entropy
     S(vib)  - vibrational entropy
     S(rot)  - rotational entropy
     S(trans)- translational entropy
The entropies will be listed as multiplied by the temperature to get
units of energy

Electronic entropy                ...      0.00000000 Eh      0.00 kcal/mol
Vibrational entropy               ...      0.00094489 Eh      0.59 kcal/mol
Rotational entropy                ...      0.00774205 Eh      4.86 kcal/mol
Translational entropy             ...      0.01716939 Eh     10.77 kcal/mol
-----------------------------------------------------------------------
Final entropy term                ...      0.02585633 Eh     16.23 kcal/mol

In case the symmetry of your molecule has not been determined correctly
or in case you have a reason to use a different symmetry number we print 
out the resulting rotational entropy values for sn=1,12 :
 --------------------------------------------------------
|  sn= 1 | S(rot)=       0.00943379 Eh      5.92 kcal/mol|
|  sn= 2 | S(rot)=       0.00877934 Eh      5.51 kcal/mol|
|  sn= 3 | S(rot)=       0.00839650 Eh      5.27 kcal/mol|
|  sn= 4 | S(rot)=       0.00812488 Eh      5.10 kcal/mol|
|  sn= 5 | S(rot)=       0.00791419 Eh      4.97 kcal/mol|
|  sn= 6 | S(rot)=       0.00774205 Eh      4.86 kcal/mol|
|  sn= 7 | S(rot)=       0.00759650 Eh      4.77 kcal/mol|
|  sn= 8 | S(rot)=       0.00747042 Eh      4.69 kcal/mol|
|  sn= 9 | S(rot)=       0.00735922 Eh      4.62 kcal/mol|
|  sn=10 | S(rot)=       0.00725974 Eh      4.56 kcal/mol|
|  sn=11 | S(rot)=       0.00716975 Eh      4.50 kcal/mol|
|  sn=12 | S(rot)=       0.00708759 Eh      4.45 kcal/mol|
 --------------------------------------------------------


-------------------
GIBBS FREE ENERGY
-------------------

The Gibbs free energy is G = H - T*S

Total enthalpy                    ...    -79.67074279 Eh 
Total entropy correction          ...     -0.02585633 Eh    -16.23 kcal/mol
-----------------------------------------------------------------------
Final Gibbs free energy         ...    -79.69659912 Eh

For completeness - the Gibbs free energy minus the electronic energy
G-E(el)                           ...      0.05315808 Eh     33.36 kcal/mol



Timings for individual modules:

Sum of individual times         ...      221.375 sec (=   3.690 min)
GTO integral calculation        ...        4.735 sec (=   0.079 min)   2.1 %
SCF iterations                  ...       11.443 sec (=   0.191 min)   5.2 %
EPR/NMR calculation             ...        3.109 sec (=   0.052 min)   1.4 %
SCF Gradient evaluation         ...        5.465 sec (=   0.091 min)   2.5 %
Numerical frequency calculation ...      196.623 sec (=   3.277 min)  88.8 %
                             ****ORCA TERMINATED NORMALLY****
TOTAL RUN TIME: 0 days 0 hours 3 minutes 31 seconds 896 msec
