
                                 *****************
                                 * O   R   C   A *
                                 *****************

                                            #,                                       
                                            ###                                      
                                            ####                                     
                                            #####                                    
                                            ######                                   
                                           ########,                                 
                                     ,,################,,,,,                         
                               ,,#################################,,                 
                          ,,##########################################,,             
                       ,#########################################, ''#####,          
                    ,#############################################,,   '####,        
                  ,##################################################,,,,####,       
                ,###########''''           ''''###############################       
              ,#####''   ,,,,##########,,,,          '''####'''          '####       
            ,##' ,,,,###########################,,,                        '##       
           ' ,,###''''                  '''############,,,                           
         ,,##''                                '''############,,,,        ,,,,,,###''
      ,#''                                            '''#######################'''  
     '                                                          ''''####''''         
             ,#######,   #######,   ,#######,      ##                                
            ,#'     '#,  ##    ##  ,#'     '#,    #''#        ######   ,####,        
            ##       ##  ##   ,#'  ##            #'  '#       #        #'  '#        
            ##       ##  #######   ##           ,######,      #####,   #    #        
            '#,     ,#'  ##    ##  '#,     ,#' ,#      #,         ##   #,  ,#        
             '#######'   ##     ##  '#######'  #'      '#     #####' # '####'        



                  #######################################################
                  #                        -***-                        #
                  #          Department of theory and spectroscopy      #
                  #    Directorship and core code : Frank Neese         #
                  #        Max Planck Institute fuer Kohlenforschung    #
                  #                Kaiser Wilhelm Platz 1               #
                  #                 D-45470 Muelheim/Ruhr               #
                  #                      Germany                        #
                  #                                                     #
                  #                  All rights reserved                #
                  #                        -***-                        #
                  #######################################################


                         Program Version 5.0.3 -  RELEASE  -


 With contributions from (in alphabetic order):
   Daniel Aravena         : Magnetic Suceptibility
   Michael Atanasov       : Ab Initio Ligand Field Theory (pilot matlab implementation)
   Alexander A. Auer      : GIAO ZORA, VPT2 properties, NMR spectrum
   Ute Becker             : Parallelization
   Giovanni Bistoni       : ED, misc. LED, open-shell LED, HFLD
   Martin Brehm           : Molecular dynamics
   Dmytro Bykov           : SCF Hessian
   Vijay G. Chilkuri      : MRCI spin determinant printing, contributions to CSF-ICE
   Dipayan Datta          : RHF DLPNO-CCSD density
   Achintya Kumar Dutta   : EOM-CC, STEOM-CC
   Dmitry Ganyushin       : Spin-Orbit,Spin-Spin,Magnetic field MRCI
   Miquel Garcia          : C-PCM and meta-GGA Hessian, CC/C-PCM, Gaussian charge scheme
   Yang Guo               : DLPNO-NEVPT2, F12-NEVPT2, CIM, IAO-localization
   Andreas Hansen         : Spin unrestricted coupled pair/coupled cluster methods
   Benjamin Helmich-Paris : MC-RPA, TRAH-SCF, COSX integrals
   Lee Huntington         : MR-EOM, pCC
   Robert Izsak           : Overlap fitted RIJCOSX, COSX-SCS-MP3, EOM
   Marcus Kettner         : VPT2
   Christian Kollmar      : KDIIS, OOCD, Brueckner-CCSD(T), CCSD density, CASPT2, CASPT2-K
   Simone Kossmann        : Meta GGA functionals, TD-DFT gradient, OOMP2, MP2 Hessian
   Martin Krupicka        : Initial AUTO-CI
   Lucas Lang             : DCDCAS
   Marvin Lechner         : AUTO-CI (C++ implementation), FIC-MRCC
   Dagmar Lenk            : GEPOL surface, SMD
   Dimitrios Liakos       : Extrapolation schemes; Compound Job, initial MDCI parallelization
   Dimitrios Manganas     : Further ROCIS development; embedding schemes
   Dimitrios Pantazis     : SARC Basis sets
   Anastasios Papadopoulos: AUTO-CI, single reference methods and gradients
   Taras Petrenko         : DFT Hessian,TD-DFT gradient, ASA, ECA, R-Raman, ABS, FL, XAS/XES, NRVS
   Peter Pinski           : DLPNO-MP2, DLPNO-MP2 Gradient
   Christoph Reimann      : Effective Core Potentials
   Marius Retegan         : Local ZFS, SOC
   Christoph Riplinger    : Optimizer, TS searches, QM/MM, DLPNO-CCSD(T), (RO)-DLPNO pert. Triples
   Tobias Risthaus        : Range-separated hybrids, TD-DFT gradient, RPA, STAB
   Michael Roemelt        : Original ROCIS implementation
   Masaaki Saitow         : Open-shell DLPNO-CCSD energy and density
   Barbara Sandhoefer     : DKH picture change effects
   Avijit Sen             : IP-ROCIS
   Kantharuban Sivalingam : CASSCF convergence, NEVPT2, FIC-MRCI
   Bernardo de Souza      : ESD, SOC TD-DFT
   Georgi Stoychev        : AutoAux, RI-MP2 NMR, DLPNO-MP2 response
   Willem Van den Heuvel  : Paramagnetic NMR
   Boris Wezisla          : Elementary symmetry handling
   Frank Wennmohs         : Technical directorship


 We gratefully acknowledge several colleagues who have allowed us to
 interface, adapt or use parts of their codes:
   Stefan Grimme, W. Hujo, H. Kruse, P. Pracht,  : VdW corrections, initial TS optimization,
                  C. Bannwarth, S. Ehlert          DFT functionals, gCP, sTDA/sTD-DF
   Ed Valeev, F. Pavosevic, A. Kumar             : LibInt (2-el integral package), F12 methods
   Garnet Chan, S. Sharma, J. Yang, R. Olivares  : DMRG
   Ulf Ekstrom                                   : XCFun DFT Library
   Mihaly Kallay                                 : mrcc  (arbitrary order and MRCC methods)
   Jiri Pittner, Ondrej Demel                    : Mk-CCSD
   Frank Weinhold                                : gennbo (NPA and NBO analysis)
   Christopher J. Cramer and Donald G. Truhlar   : smd solvation model
   Lars Goerigk                                  : TD-DFT with DH, B97 family of functionals
   V. Asgeirsson, H. Jonsson                     : NEB implementation
   FAccTs GmbH                                   : IRC, NEB, NEB-TS, DLPNO-Multilevel, CI-OPT
                                                   MM, QMMM, 2- and 3-layer-ONIOM, Crystal-QMMM,
                                                   LR-CPCM, SF, NACMEs, symmetry and pop. for TD-DFT,
                                                   nearIR, NL-DFT gradient (VV10), updates on ESD,
                                                   ML-optimized integration grids
   S Lehtola, MJT Oliveira, MAL Marques          : LibXC Library
   Liviu Ungur et al                             : ANISO software


 Your calculation uses the libint2 library for the computation of 2-el integrals
 For citations please refer to: http://libint.valeyev.net

 Your ORCA version has been built with support for libXC version: 5.1.0
 For citations please refer to: https://tddft.org/programs/libxc/

 This ORCA versions uses:
   CBLAS   interface :  Fast vector & matrix operations
   LAPACKE interface :  Fast linear algebra routines
   Shared memory     :  Shared parallel matrices


SCAN-COORDS
================================================================================

----- Orbital basis set information -----
Your calculation utilizes the basis: def2-TZVP
   F. Weigend and R. Ahlrichs, Phys. Chem. Chem. Phys. 7, 3297 (2005).

----- AuxJ basis set information -----
Your calculation utilizes the auxiliary basis: def2/J
   F. Weigend, Phys. Chem. Chem. Phys. 8, 1057 (2006).

================================================================================
                                        WARNINGS
                       Please study these warnings very carefully!
================================================================================

WARNING: Gradients needed for Numerical Frequencies
  ===> : Setting RunTyp to EnGrad

WARNING: The environment variable RSH_COMMAND is not set!
  ===> : All Displacements for the Numerical Hessian or Gradient calculation
         will be started on localhost

INFO   : the flag for use of the SHARK integral package has been found!

================================================================================
                                       INPUT FILE
================================================================================
NAME = C2N2_20.inp
|  1> ! PAL5 PBE0 NumFreq
|  2> %method
|  3>         method DFT
|  4>         runtyp Energy
|  5> end
|  6> %basis
|  7>         basis "def2-TZVP"
|  8> end
|  9> %coords
| 10>         CTyp xyz
| 11>         Charge 0
| 12>         Mult 1
| 13>         Units Angs
| 14>         coords
| 15> 	#33.3
| 16> 	C      0.901163    0.213223   -0.028373
| 17> 	C      2.433052    0.225083   -0.148833
| 18> 	H      0.592926   -0.349917    0.855372
| 19> 	H      0.453487   -0.251684   -0.909614
| 20> 	H      0.518097    1.232493    0.058629
| 21> 	H      2.763812   -0.521759   -0.874150
| 22> 	H      2.781611    1.206533   -0.477840
| 23> 	H      2.892631   -0.000931    0.815945
| 24> 	end
| 25> end
| 26> %eprnmr
| 27>         NMRShielding 1
| 28>         Nuclei = all C {shift}
| 29>         Nuclei = all H {shift}
| 30> end
| 31> 
| 32>                          ****END OF INPUT****
================================================================================

                     *******************************
                     * Energy+Gradient Calculation *
                     *******************************

---------------------------------
CARTESIAN COORDINATES (ANGSTROEM)
---------------------------------
  C      0.901163    0.213223   -0.028373
  C      2.433052    0.225083   -0.148833
  H      0.592926   -0.349917    0.855372
  H      0.453487   -0.251684   -0.909614
  H      0.518097    1.232493    0.058629
  H      2.763812   -0.521759   -0.874150
  H      2.781611    1.206533   -0.477840
  H      2.892631   -0.000931    0.815945

----------------------------
CARTESIAN COORDINATES (A.U.)
----------------------------
  NO LB      ZA    FRAG     MASS         X           Y           Z
   0 C     6.0000    0    12.011    1.702951    0.402933   -0.053617
   1 C     6.0000    0    12.011    4.597802    0.425345   -0.281254
   2 H     1.0000    0     1.008    1.120468   -0.661247    1.616419
   3 H     1.0000    0     1.008    0.856966   -0.475614   -1.718921
   4 H     1.0000    0     1.008    0.979061    2.329074    0.110793
   5 H     1.0000    0     1.008    5.222848   -0.985982   -1.651904
   6 H     1.0000    0     1.008    5.256483    2.280017   -0.902987
   7 H     1.0000    0     1.008    5.466280   -0.001759    1.541913

--------------------------------
INTERNAL COORDINATES (ANGSTROEM)
--------------------------------
 C      0   0   0     0.000000000000     0.00000000     0.00000000
 C      1   0   0     1.536663652047     0.00000000     0.00000000
 H      1   2   0     1.092310364683   110.40862057     0.00000000
 H      1   2   3     1.092308573484   110.40245727   240.00053325
 H      1   2   3     1.092346209432   110.40379393   120.00169529
 H      2   1   3     1.092364362771   110.40327350    99.73950771
 H      2   1   3     1.092237650436   110.40662493   219.74300687
 H      2   1   3     1.092287404817   110.40202841   339.74646942

---------------------------
INTERNAL COORDINATES (A.U.)
---------------------------
 C      0   0   0     0.000000000000     0.00000000     0.00000000
 C      1   0   0     2.903873462319     0.00000000     0.00000000
 H      1   2   0     2.064167442495   110.40862057     0.00000000
 H      1   2   3     2.064164057618   110.40245727   240.00053325
 H      1   2   3     2.064235179253   110.40379393   120.00169529
 H      2   1   3     2.064269484093   110.40327350    99.73950771
 H      2   1   3     2.064030032482   110.40662493   219.74300687
 H      2   1   3     2.064124054635   110.40202841   339.74646942

---------------------
BASIS SET INFORMATION
---------------------
There are 2 groups of distinct atoms

 Group   1 Type C   : 11s6p2d1f contracted to 5s3p2d1f pattern {62111/411/11/1}
 Group   2 Type H   : 5s1p contracted to 3s1p pattern {311/1}

Atom   0C    basis set group =>   1
Atom   1C    basis set group =>   1
Atom   2H    basis set group =>   2
Atom   3H    basis set group =>   2
Atom   4H    basis set group =>   2
Atom   5H    basis set group =>   2
Atom   6H    basis set group =>   2
Atom   7H    basis set group =>   2
---------------------------------
AUXILIARY/J BASIS SET INFORMATION
---------------------------------
There are 2 groups of distinct atoms

 Group   1 Type C   : 12s5p4d2f1g contracted to 6s4p3d1f1g pattern {711111/2111/211/2/1}
 Group   2 Type H   : 5s2p1d contracted to 3s1p1d pattern {311/2/1}

Atom   0C    basis set group =>   1
Atom   1C    basis set group =>   1
Atom   2H    basis set group =>   2
Atom   3H    basis set group =>   2
Atom   4H    basis set group =>   2
Atom   5H    basis set group =>   2
Atom   6H    basis set group =>   2
Atom   7H    basis set group =>   2


           ************************************************************
           *        Program running with 5 parallel MPI-processes     *
           *              working on a common directory               *
           ************************************************************
------------------------------------------------------------------------------
                           ORCA GTO INTEGRAL CALCULATION
                           -- RI-GTO INTEGRALS CHOSEN --
------------------------------------------------------------------------------
------------------------------------------------------------------------------
                   ___                                                        
                  /   \      - P O W E R E D   B Y -                         
                 /     \                                                     
                 |  |  |   _    _      __       _____    __    __             
                 |  |  |  | |  | |    /  \     |  _  \  |  |  /  |          
                  \  \/   | |  | |   /    \    | | | |  |  | /  /          
                 / \  \   | |__| |  /  /\  \   | |_| |  |  |/  /          
                |  |  |   |  __  | /  /__\  \  |    /   |      \           
                |  |  |   | |  | | |   __   |  |    \   |  |\   \          
                \     /   | |  | | |  |  |  |  | |\  \  |  | \   \       
                 \___/    |_|  |_| |__|  |__|  |_| \__\ |__|  \__/        
                                                                              
                      - O R C A' S   B I G   F R I E N D -                    
                                      &                                       
                       - I N T E G R A L  F E E D E R -                       
                                                                              
 v1 FN, 2020, v2 2021                                                         
------------------------------------------------------------------------------


Reading SHARK input file C2N2_20.SHARKINP.tmp ... ok
----------------------
SHARK INTEGRAL PACKAGE
----------------------

Number of atoms                             ...      8
Number of basis functions                   ...     98
Number of shells                            ...     46
Maximum angular momentum                    ...      3
Integral batch strategy                     ... SHARK/LIBINT Hybrid
RI-J (if used) integral strategy            ... SPLIT-RIJ (Revised 2003 algorithm where possible)
Printlevel                                  ...      1
Contraction scheme used                     ... SEGMENTED contraction
Coulomb Range Separation                    ... NOT USED
Exchange Range Separation                   ... NOT USED
Finite Nucleus Model                        ... NOT USED
Auxiliary Coulomb fitting basis             ... AVAILABLE
   # of basis functions in Aux-J            ...    164
   # of shells in Aux-J                     ...     60
   Maximum angular momentum in Aux-J        ...      4
Auxiliary J/K fitting basis                 ... NOT available
Auxiliary Correlation fitting basis         ... NOT available
Auxiliary 'external' fitting basis          ... NOT available
Integral threshold                          ...     2.500000e-11
Primitive cut-off                           ...     2.500000e-12
Primitive pair pre-selection threshold      ...     2.500000e-12

Calculating pre-screening integrals         ... done (  0.0 sec) Dimension = 46
Organizing shell pair data                  ... done (  0.0 sec)
Shell pair information
Total number of shell pairs                 ...      1081
Shell pairs after pre-screening             ...      1080
Total number of primitive shell pairs       ...      2988
Primitive shell pairs kept                  ...      2664
          la=0 lb=0:    405 shell pairs
          la=1 lb=0:    336 shell pairs
          la=1 lb=1:     78 shell pairs
          la=2 lb=0:    112 shell pairs
          la=2 lb=1:     48 shell pairs
          la=2 lb=2:     10 shell pairs
          la=3 lb=0:     56 shell pairs
          la=3 lb=1:     24 shell pairs
          la=3 lb=2:      8 shell pairs
          la=3 lb=3:      3 shell pairs

Calculating one electron integrals          ... done (  0.0 sec)
Calculating RI/J V-Matrix + Cholesky decomp.... done (  0.0 sec)
Calculating Nuclear repulsion               ... done (  0.0 sec) ENN=     42.175123302691 Eh

SHARK setup successfully completed in   0.1 seconds

Maximum memory used throughout the entire GTOINT-calculation: 14.6 MB


           ************************************************************
           *        Program running with 5 parallel MPI-processes     *
           *              working on a common directory               *
           ************************************************************
-------------------------------------------------------------------------------
                                 ORCA SCF
-------------------------------------------------------------------------------

------------
SCF SETTINGS
------------
Hamiltonian:
 Density Functional     Method          .... DFT(GTOs)
 Exchange Functional    Exchange        .... PBE
   PBE kappa parameter   XKappa         ....  0.804000
   PBE mue parameter    XMuePBE         ....  0.219520
 Correlation Functional Correlation     .... PBE
   PBE beta parameter  CBetaPBE         ....  0.066725
 LDA part of GGA corr.  LDAOpt          .... PW91-LDA
 Gradients option       PostSCFGGA      .... off
 Hybrid DFT is turned on
   Fraction HF Exchange ScalHFX         ....  0.250000
   Scaling of DF-GGA-X  ScalDFX         ....  0.750000
   Scaling of DF-GGA-C  ScalDFC         ....  1.000000
   Scaling of DF-LDA-C  ScalLDAC        ....  1.000000
   Perturbative correction              ....  0.000000
   Density functional embedding theory  .... OFF
   NL short-range parameter             ....  6.900000
 RI-approximation to the Coulomb term is turned on
   Number of AuxJ basis functions       .... 164
   RIJ-COSX (HFX calculated with COS-X)).... on


General Settings:
 Integral files         IntName         .... C2N2_20
 Hartree-Fock type      HFTyp           .... RHF
 Total Charge           Charge          ....    0
 Multiplicity           Mult            ....    1
 Number of Electrons    NEL             ....   18
 Basis Dimension        Dim             ....   98
 Nuclear Repulsion      ENuc            ....     42.1751233027 Eh

Convergence Acceleration:
 DIIS                   CNVDIIS         .... on
   Start iteration      DIISMaxIt       ....    12
   Startup error        DIISStart       ....  0.200000
   # of expansion vecs  DIISMaxEq       ....     5
   Bias factor          DIISBfac        ....   1.050
   Max. coefficient     DIISMaxC        ....  10.000
 Trust-Rad. Augm. Hess. CNVTRAH         .... auto
   Auto Start mean grad. ratio tolernc. ....  1.125000
   Auto Start start iteration           ....    20
   Auto Start num. interpolation iter.  ....    10
   Max. Number of Micro iterations      ....    16
   Max. Number of Macro iterations      .... Maxiter - #DIIS iter
   Number of Davidson start vectors     ....     2
   Converg. threshold I  (grad. norm)   ....   1.000e-05
   Converg. threshold II (energy diff.) ....   1.000e-08
   Grad. Scal. Fac. for Micro threshold ....   0.100
   Minimum threshold for Micro iter.    ....   0.010
   NR start threshold (gradient norm)   ....   0.001
   Initial trust radius                 ....   0.400
   Minimum AH scaling param. (alpha)    ....   1.000
   Maximum AH scaling param. (alpha)    .... 1000.000
   Orbital update algorithm             .... Taylor
   White noise on init. David. guess    .... on
   Maximum white noise                  ....   0.010
   Quad. conv. algorithm                .... NR
 SOSCF                  CNVSOSCF        .... on
   Start iteration      SOSCFMaxIt      ....   150
   Startup grad/error   SOSCFStart      ....  0.003300
 Level Shifting         CNVShift        .... on
   Level shift para.    LevelShift      ....    0.2500
   Turn off err/grad.   ShiftErr        ....    0.0010
 Zerner damping         CNVZerner       .... off
 Static damping         CNVDamp         .... on
   Fraction old density DampFac         ....    0.7000
   Max. Damping (<1)    DampMax         ....    0.9800
   Min. Damping (>=0)   DampMin         ....    0.0000
   Turn off err/grad.   DampErr         ....    0.1000
 Fernandez-Rico         CNVRico         .... off

SCF Procedure:
 Maximum # iterations   MaxIter         ....   125
 SCF integral mode      SCFMode         .... Direct
   Integral package                     .... SHARK and LIBINT hybrid scheme
 Reset frequency        DirectResetFreq ....    20
 Integral Threshold     Thresh          ....  2.500e-11 Eh
 Primitive CutOff       TCut            ....  2.500e-12 Eh

Convergence Tolerance:
 Convergence Check Mode ConvCheckMode   .... Total+1el-Energy
 Convergence forced     ConvForced      .... 0
 Energy Change          TolE            ....  1.000e-08 Eh
 1-El. energy change                    ....  1.000e-05 Eh
 Orbital Gradient       TolG            ....  1.000e-05
 Orbital Rotation angle TolX            ....  1.000e-05
 DIIS Error             TolErr          ....  5.000e-07


Diagonalization of the overlap matrix:
Smallest eigenvalue                        ... 5.027e-04
Time for diagonalization                   ...    0.001 sec
Threshold for overlap eigenvalues          ... 1.000e-08
Number of eigenvalues below threshold      ... 0
Time for construction of square roots      ...    0.005 sec
Total time needed                          ...    0.007 sec

Time for model grid setup =    0.024 sec

------------------------------
INITIAL GUESS: MODEL POTENTIAL
------------------------------
Loading Hartree-Fock densities                     ... done
Calculating cut-offs                               ... done
Initializing the effective Hamiltonian             ... done
Setting up the integral package (SHARK)            ... done
Starting the Coulomb interaction                   ... done (   0.0 sec)
Reading the grid                                   ... done
Mapping shells                                     ... done
Starting the XC term evaluation                    ... done (   0.0 sec)
  promolecular density results
     # of electrons  =     17.997645772
     EX              =    -11.973014215
     EC              =     -0.554790000
     EX+EC           =    -12.527804215
Transforming the Hamiltonian                       ... done (   0.0 sec)
Diagonalizing the Hamiltonian                      ... done (   0.0 sec)
Back transforming the eigenvectors                 ... done (   0.0 sec)
Now organizing SCF variables                       ... done
                      ------------------
                      INITIAL GUESS DONE (   0.1 sec)
                      ------------------
-------------------
DFT GRID GENERATION
-------------------

General Integration Accuracy     IntAcc      ... 4.388
Radial Grid Type                 RadialGrid  ... OptM3 with GC (2021)
Angular Grid (max. ang.)         AngularGrid ... 4 (Lebedev-302)
Angular grid pruning method      GridPruning ... 4 (adaptive)
Weight generation scheme         WeightScheme... Becke
Basis function cutoff            BFCut       ... 1.0000e-11
Integration weight cutoff        WCut        ... 1.0000e-14
Angular grids for H and He will be reduced by one unit
Partially contracted basis set               ... off
Rotationally invariant grid construction     ... off

Total number of grid points                  ...    31677
Total number of batches                      ...      498
Average number of points per batch           ...       63
Average number of grid points per atom       ...     3960
Time for grid setup =    0.099 sec

--------------------
COSX GRID GENERATION
--------------------

GRIDX 1
-------
General Integration Accuracy     IntAcc      ... 3.816
Radial Grid Type                 RadialGrid  ... OptM3 with GC (2021)
Angular Grid (max. ang.)         AngularGrid ... 1 (Lebedev-50)
Angular grid pruning method      GridPruning ... 4 (adaptive)
Weight generation scheme         WeightScheme... Becke
Basis function cutoff            BFCut       ... 1.0000e-11
Integration weight cutoff        WCut        ... 1.0000e-14
Angular grids for H and He will be reduced by one unit
Partially contracted basis set               ... on
Rotationally invariant grid construction     ... off

Total number of grid points                  ...     4117
Total number of batches                      ...       69
Average number of points per batch           ...       59
Average number of grid points per atom       ...      515
UseSFitting                                  ... on

GRIDX 2
-------
General Integration Accuracy     IntAcc      ... 4.020
Radial Grid Type                 RadialGrid  ... OptM3 with GC (2021)
Angular Grid (max. ang.)         AngularGrid ... 2 (Lebedev-110)
Angular grid pruning method      GridPruning ... 4 (adaptive)
Weight generation scheme         WeightScheme... Becke
Basis function cutoff            BFCut       ... 1.0000e-11
Integration weight cutoff        WCut        ... 1.0000e-14
Angular grids for H and He will be reduced by one unit
Partially contracted basis set               ... on
Rotationally invariant grid construction     ... off

Total number of grid points                  ...     8400
Total number of batches                      ...      137
Average number of points per batch           ...       61
Average number of grid points per atom       ...     1050
UseSFitting                                  ... on

GRIDX 3
-------
General Integration Accuracy     IntAcc      ... 4.338
Radial Grid Type                 RadialGrid  ... OptM3 with GC (2021)
Angular Grid (max. ang.)         AngularGrid ... 3 (Lebedev-194)
Angular grid pruning method      GridPruning ... 4 (adaptive)
Weight generation scheme         WeightScheme... Becke
Basis function cutoff            BFCut       ... 1.0000e-11
Integration weight cutoff        WCut        ... 1.0000e-14
Angular grids for H and He will be reduced by one unit
Partially contracted basis set               ... on
Rotationally invariant grid construction     ... off

Total number of grid points                  ...    18430
Total number of batches                      ...      291
Average number of points per batch           ...       63
Average number of grid points per atom       ...     2304
UseSFitting                                  ... on

Time for X-Grid setup             =    0.137 sec

--------------
SCF ITERATIONS
--------------
ITER       Energy         Delta-E        Max-DP      RMS-DP      [F,P]     Damp
               ***  Starting incremental Fock matrix formation  ***
  0    -79.6377718321   0.000000000000 0.03308983  0.00145906  0.1892782 0.7000
  1    -79.6880419915  -0.050270159439 0.02168202  0.00107829  0.1007394 0.7000
                               ***Turning on DIIS***
  2    -79.7090297299  -0.020987738403 0.03400266  0.00186878  0.0398163 0.0000
  3    -79.7374490696  -0.028419339670 0.01394009  0.00070980  0.0535776 0.0000
  4    -79.7462162289  -0.008767159326 0.00277923  0.00020898  0.0113114 0.0000
                      *** Initiating the SOSCF procedure ***
                           *** Shutting down DIIS ***
                      *** Re-Reading the Fockian *** 
                      *** Removing any level shift *** 
ITER      Energy       Delta-E        Grad      Rot      Max-DP    RMS-DP
  5    -79.74665016  -0.0004339315  0.000888  0.000888  0.001114  0.000079
               *** Restarting incremental Fock matrix formation ***
  6    -79.74667556  -0.0000253971  0.000330  0.000638  0.000867  0.000055
  7    -79.74667610  -0.0000005393  0.000255  0.000177  0.000224  0.000011
  8    -79.74667730  -0.0000012055  0.000033  0.000035  0.000033  0.000002
  9    -79.74667731  -0.0000000092  0.000009  0.000011  0.000009  0.000001
                 **** Energy Check signals convergence ****
              ***Rediagonalizing the Fockian in SOSCF/NRSCF***

               *****************************************************
               *                     SUCCESS                       *
               *           SCF CONVERGED AFTER  10 CYCLES          *
               *****************************************************

Old exchange energy                            =     -3.122064795 Eh
New exchange energy                            =     -3.122060958 Eh
Exchange energy change after final integration =      0.000003837 Eh
Total energy after final integration           =    -79.746673476 Eh
Final COS-X integration done in                =     0.270 sec

----------------
TOTAL SCF ENERGY
----------------

Total Energy       :          -79.74667348 Eh           -2170.01731 eV

Components:
Nuclear Repulsion  :           42.17512330 Eh            1147.64345 eV
Electronic Energy  :         -121.92179678 Eh           -3317.66076 eV
One Electron Energy:         -189.21281781 Eh           -5148.74253 eV
Two Electron Energy:           67.29102103 Eh            1831.08177 eV
Max COSX asymmetry :            0.00000116 Eh               0.00003 eV

Virial components:
Potential Energy   :         -159.01972859 Eh           -4327.14680 eV
Kinetic Energy     :           79.27305512 Eh            2157.12950 eV
Virial Ratio       :            2.00597452


DFT components:
N(Alpha)           :        8.999995584169 electrons
N(Beta)            :        8.999995584169 electrons
N(Total)           :       17.999991168338 electrons
E(X)               :       -9.304232077857 Eh       
E(C)               :       -0.561947201066 Eh       
E(XC)              :       -9.866179278923 Eh       
DFET-embed. en.    :        0.000000000000 Eh       

---------------
SCF CONVERGENCE
---------------

  Last Energy change         ...   -1.1427e-09  Tolerance :   1.0000e-08
  Last MAX-Density change    ...    5.5511e-16  Tolerance :   1.0000e-07
  Last RMS-Density change    ...    1.2996e-17  Tolerance :   5.0000e-09
  Last Orbital Gradient      ...    7.5468e-07  Tolerance :   1.0000e-05
  Last Orbital Rotation      ...    6.2688e-07  Tolerance :   1.0000e-05

             **** THE GBW FILE WAS UPDATED (C2N2_20.gbw) ****
             **** DENSITY C2N2_20.scfp WAS UPDATED ****
             **** ENERGY FILE WAS UPDATED (C2N2_20.en.tmp) ****
             **** THE GBW FILE WAS UPDATED (C2N2_20.gbw) ****
             **** DENSITY C2N2_20.scfp WAS UPDATED ****
----------------
ORBITAL ENERGIES
----------------

  NO   OCC          E(Eh)            E(eV) 
   0   2.0000     -10.206436      -277.7312 
   1   2.0000     -10.206216      -277.7253 
   2   2.0000      -0.773146       -21.0384 
   3   2.0000      -0.630798       -17.1649 
   4   2.0000      -0.448966       -12.2170 
   5   2.0000      -0.448955       -12.2167 
   6   2.0000      -0.373618       -10.1667 
   7   2.0000      -0.351843        -9.5741 
   8   2.0000      -0.351826        -9.5737 
   9   0.0000       0.053050         1.4436 
  10   0.0000       0.090246         2.4557 
  11   0.0000       0.104440         2.8420 
  12   0.0000       0.104443         2.8420 
  13   0.0000       0.169774         4.6198 
  14   0.0000       0.169785         4.6201 
  15   0.0000       0.201055         5.4710 
  16   0.0000       0.209625         5.7042 
  17   0.0000       0.229279         6.2390 
  18   0.0000       0.229282         6.2391 
  19   0.0000       0.277117         7.5407 
  20   0.0000       0.277136         7.5413 
  21   0.0000       0.399722        10.8770 
  22   0.0000       0.426516        11.6061 
  23   0.0000       0.443085        12.0570 
  24   0.0000       0.443090        12.0571 
  25   0.0000       0.458193        12.4681 
  26   0.0000       0.522886        14.2285 
  27   0.0000       0.522910        14.2291 
  28   0.0000       0.544433        14.8148 
  29   0.0000       0.605655        16.4807 
  30   0.0000       0.605669        16.4811 
  31   0.0000       0.624731        16.9998 
  32   0.0000       0.903073        24.5739 
  33   0.0000       0.903109        24.5748 
  34   0.0000       0.935603        25.4591 
  35   0.0000       1.002812        27.2879 
  36   0.0000       1.002820        27.2881 
  37   0.0000       1.057912        28.7873 
  38   0.0000       1.057934        28.7878 
  39   0.0000       1.115791        30.3622 
  40   0.0000       1.478639        40.2358 
  41   0.0000       1.479078        40.2478 
  42   0.0000       1.479113        40.2487 
  43   0.0000       1.546308        42.0772 
  44   0.0000       1.549695        42.1694 
  45   0.0000       1.561122        42.4803 
  46   0.0000       1.634735        44.4834 
  47   0.0000       1.634754        44.4839 
  48   0.0000       1.705317        46.4040 
  49   0.0000       1.767445        48.0946 
  50   0.0000       1.801145        49.0116 
  51   0.0000       1.801174        49.0124 
  52   0.0000       1.961371        53.3716 
  53   0.0000       1.961407        53.3726 
  54   0.0000       1.981899        53.9302 
  55   0.0000       2.169180        59.0264 
  56   0.0000       2.204554        59.9890 
  57   0.0000       2.204577        59.9896 
  58   0.0000       2.243859        61.0585 
  59   0.0000       2.317461        63.0613 
  60   0.0000       2.317508        63.0626 
  61   0.0000       2.411133        65.6103 
  62   0.0000       2.411170        65.6113 
  63   0.0000       2.535924        69.0060 
  64   0.0000       2.535969        69.0072 
  65   0.0000       2.579356        70.1878 
  66   0.0000       2.579381        70.1885 
  67   0.0000       2.691683        73.2444 
  68   0.0000       2.840733        77.3003 
  69   0.0000       2.840824        77.3028 
  70   0.0000       2.890808        78.6629 
  71   0.0000       2.947482        80.2051 
  72   0.0000       2.947516        80.2060 
  73   0.0000       3.013442        81.9999 
  74   0.0000       3.097148        84.2777 
  75   0.0000       3.226196        87.7892 
  76   0.0000       3.226260        87.7910 
  77   0.0000       3.243764        88.2673 
  78   0.0000       3.253195        88.5239 
  79   0.0000       3.253223        88.5247 
  80   0.0000       3.356445        91.3335 
  81   0.0000       3.415059        92.9285 
  82   0.0000       3.545694        96.4832 
  83   0.0000       3.545760        96.4850 
  84   0.0000       3.785767       103.0160 
  85   0.0000       3.785831       103.0177 
  86   0.0000       3.857440       104.9663 
  87   0.0000       3.917356       106.5967 
  88   0.0000       3.917385       106.5975 
  89   0.0000       4.164114       113.3113 
  90   0.0000       4.164168       113.3128 
  91   0.0000       4.426650       120.4553 
  92   0.0000       4.451960       121.1440 
  93   0.0000       4.570126       124.3594 
  94   0.0000       4.570187       124.3611 
  95   0.0000       4.804474       130.7364 
  96   0.0000      22.278142       606.2191 
  97   0.0000      22.409628       609.7970 

                    ********************************
                    * MULLIKEN POPULATION ANALYSIS *
                    ********************************

-----------------------
MULLIKEN ATOMIC CHARGES
-----------------------
   0 C :   -0.346725
   1 C :   -0.346378
   2 H :    0.115534
   3 H :    0.115573
   4 H :    0.115524
   5 H :    0.115443
   6 H :    0.115521
   7 H :    0.115508
Sum of atomic charges:   -0.0000000

--------------------------------
MULLIKEN REDUCED ORBITAL CHARGES
--------------------------------
  0 C s       :     3.228757  s :     3.228757
      pz      :     1.053591  p :     3.058149
      px      :     0.950370
      py      :     1.054189
      dz2     :     0.005246  d :     0.056361
      dxz     :     0.019012
      dyz     :     0.005023
      dx2y2   :     0.008750
      dxy     :     0.018330
      f0      :     0.000314  f :     0.003459
      f+1     :     0.000401
      f-1     :     0.000659
      f+2     :     0.000574
      f-2     :     0.000021
      f+3     :     0.000670
      f-3     :     0.000819
  1 C s       :     3.228606  s :     3.228606
      pz      :     1.053463  p :     3.057953
      px      :     0.950343
      py      :     1.054148
      dz2     :     0.004786  d :     0.056360
      dxz     :     0.019400
      dyz     :     0.005249
      dx2y2   :     0.008990
      dxy     :     0.017934
      f0      :     0.000453  f :     0.003459
      f+1     :     0.000491
      f-1     :     0.000292
      f+2     :     0.000794
      f-2     :    -0.000004
      f+3     :     0.000601
      f-3     :     0.000832
  2 H s       :     0.863337  s :     0.863337
      pz      :     0.009439  p :     0.021129
      px      :     0.005245
      py      :     0.006445
  3 H s       :     0.863305  s :     0.863305
      pz      :     0.009285  p :     0.021122
      px      :     0.005990
      py      :     0.005847
  4 H s       :     0.863350  s :     0.863350
      pz      :     0.004513  p :     0.021126
      px      :     0.005626
      py      :     0.010987
  5 H s       :     0.863431  s :     0.863431
      pz      :     0.007833  p :     0.021126
      px      :     0.005346
      py      :     0.007947
  6 H s       :     0.863352  s :     0.863352
      pz      :     0.005148  p :     0.021127
      px      :     0.005446
      py      :     0.010533
  7 H s       :     0.863366  s :     0.863366
      pz      :     0.010257  p :     0.021126
      px      :     0.006069
      py      :     0.004800


                     *******************************
                     * LOEWDIN POPULATION ANALYSIS *
                     *******************************

----------------------
LOEWDIN ATOMIC CHARGES
----------------------
   0 C :   -0.349687
   1 C :   -0.349654
   2 H :    0.116558
   3 H :    0.116564
   4 H :    0.116568
   5 H :    0.116563
   6 H :    0.116540
   7 H :    0.116549

-------------------------------
LOEWDIN REDUCED ORBITAL CHARGES
-------------------------------
  0 C s       :     2.842437  s :     2.842437
      pz      :     1.079373  p :     3.220669
      px      :     1.061820
      py      :     1.079476
      dz2     :     0.033536  d :     0.261510
      dxz     :     0.074682
      dyz     :     0.028355
      dx2y2   :     0.051492
      dxy     :     0.073446
      f0      :     0.002278  f :     0.025072
      f+1     :     0.003530
      f-1     :     0.003064
      f+2     :     0.003824
      f-2     :     0.002590
      f+3     :     0.004016
      f-3     :     0.005770
  1 C s       :     2.842421  s :     2.842421
      pz      :     1.079355  p :     3.220647
      px      :     1.061826
      py      :     1.079466
      dz2     :     0.029639  d :     0.261513
      dxz     :     0.077931
      dyz     :     0.030305
      dx2y2   :     0.053501
      dxy     :     0.070138
      f0      :     0.003043  f :     0.025073
      f+1     :     0.004032
      f-1     :     0.001558
      f+2     :     0.004326
      f-2     :     0.002315
      f+3     :     0.003773
      f-3     :     0.006024
  2 H s       :     0.821543  s :     0.821543
      pz      :     0.027878  p :     0.061899
      px      :     0.014503
      py      :     0.019518
  3 H s       :     0.821537  s :     0.821537
      pz      :     0.027952  p :     0.061899
      px      :     0.016337
      py      :     0.017611
  4 H s       :     0.821539  s :     0.821539
      pz      :     0.013821  p :     0.061893
      px      :     0.015405
      py      :     0.032667
  5 H s       :     0.821549  s :     0.821549
      pz      :     0.023224  p :     0.061889
      px      :     0.014746
      py      :     0.023919
  6 H s       :     0.821550  s :     0.821550
      pz      :     0.015670  p :     0.061910
      px      :     0.014972
      py      :     0.031268
  7 H s       :     0.821550  s :     0.821550
      pz      :     0.030759  p :     0.061902
      px      :     0.016529
      py      :     0.014613


                      *****************************
                      * MAYER POPULATION ANALYSIS *
                      *****************************

  NA   - Mulliken gross atomic population
  ZA   - Total nuclear charge
  QA   - Mulliken gross atomic charge
  VA   - Mayer's total valence
  BVA  - Mayer's bonded valence
  FA   - Mayer's free valence

  ATOM       NA         ZA         QA         VA         BVA        FA
  0 C      6.3467     6.0000    -0.3467     3.9028     3.9028     0.0000
  1 C      6.3464     6.0000    -0.3464     3.9028     3.9028    -0.0000
  2 H      0.8845     1.0000     0.1155     0.9705     0.9705    -0.0000
  3 H      0.8844     1.0000     0.1156     0.9706     0.9706     0.0000
  4 H      0.8845     1.0000     0.1155     0.9705     0.9705     0.0000
  5 H      0.8846     1.0000     0.1154     0.9706     0.9706    -0.0000
  6 H      0.8845     1.0000     0.1155     0.9706     0.9706    -0.0000
  7 H      0.8845     1.0000     0.1155     0.9705     0.9705    -0.0000

  Mayer bond orders larger than 0.100000
B(  0-C ,  1-C ) :   0.9874 B(  0-C ,  2-H ) :   0.9757 B(  0-C ,  3-H ) :   0.9757 
B(  0-C ,  4-H ) :   0.9757 B(  1-C ,  5-H ) :   0.9757 B(  1-C ,  6-H ) :   0.9757 
B(  1-C ,  7-H ) :   0.9757 

-------
TIMINGS
-------

Total SCF time: 0 days 0 hours 0 min 3 sec 

Total time                  ....       3.246 sec
Sum of individual times     ....       3.041 sec  ( 93.7%)

Fock matrix formation       ....       2.650 sec  ( 81.6%)
  Split-RI-J                ....       0.235 sec  (  8.9% of F)
  Chain of spheres X        ....       1.559 sec  ( 58.8% of F)
  XC integration            ....       0.609 sec  ( 23.0% of F)
    Basis function eval.    ....       0.125 sec  ( 20.5% of XC)
    Density eval.           ....       0.110 sec  ( 18.1% of XC)
    XC-Functional eval.     ....       0.030 sec  (  4.9% of XC)
    XC-Potential eval.      ....       0.116 sec  ( 19.0% of XC)
Diagonalization             ....       0.028 sec  (  0.9%)
Density matrix formation    ....       0.002 sec  (  0.1%)
Population analysis         ....       0.018 sec  (  0.6%)
Initial guess               ....       0.037 sec  (  1.1%)
Orbital Transformation      ....       0.000 sec  (  0.0%)
Orbital Orthonormalization  ....       0.000 sec  (  0.0%)
DIIS solution               ....       0.020 sec  (  0.6%)
SOSCF solution              ....       0.026 sec  (  0.8%)
Grid generation             ....       0.260 sec  (  8.0%)

Maximum memory used throughout the entire SCF-calculation: 60.4 MB

-------------------------   --------------------
FINAL SINGLE POINT ENERGY       -79.746673475689
-------------------------   --------------------



           ************************************************************
           *        Program running with 5 parallel MPI-processes     *
           *              working on a common directory               *
           ************************************************************
------------------------------------------------------------------------------
                         ORCA SCF GRADIENT CALCULATION
------------------------------------------------------------------------------

 ... reading COSX grid (gridx3)
Gradient of the Kohn-Sham DFT energy:
Kohn-Sham wavefunction type      ... RKS
Hartree-Fock exchange scaling    ...    0.250
Number of operators              ...    1
Number of atoms                  ...    8
Basis set dimensions             ...   98
Integral neglect threshold       ... 2.5e-11
Integral primitive cutoff        ... 2.5e-12
SHARK Integral package           ... ON

Nuc. rep. gradient       (SHARK) ... done (  0.0 sec)
HCore & Overlap gradient (SHARK) ... done (  0.0 sec)
RI-J gradient            (SHARK) ... done (  0.1 sec)
COSX-gradient                    ... done (  0.4 sec)
Exchange-correlation gradient    ... done

------------------
CARTESIAN GRADIENT
------------------

   1   C   :   -0.006937317   -0.000081555    0.000506119
   2   C   :    0.006959711    0.000101208   -0.000506910
   3   H   :    0.002777130   -0.000220118    0.002033259
   4   H   :    0.002526983   -0.001801822   -0.001520795
   5   H   :    0.002501915    0.002103908   -0.001159162
   6   H   :   -0.002752602   -0.000814209   -0.001921009
   7   H   :   -0.002604931    0.002160245    0.000630498
   8   H   :   -0.002473930   -0.001459720    0.001897736

Difference to translation invariance:
           :   -0.0000030394   -0.0000120632   -0.0000402652

Difference to rotation invariance:
           :   -0.0000982982   -0.0001041849   -0.0000138607

Norm of the cartesian gradient     ...    0.0129844553
RMS gradient                       ...    0.0026504408
MAX gradient                       ...    0.0069597110

-------
TIMINGS
-------

Total SCF gradient time            ...        0.788 sec

One electron gradient       ....       0.011 sec  (  1.4%)
RI-J Coulomb gradient       ....       0.070 sec  (  8.9%)
COSX gradient               ....       0.361 sec  ( 45.8%)
XC gradient                 ....       0.234 sec  ( 29.7%)

Maximum memory used throughout the entire SCFGRAD-calculation: 35.2 MB

                            ***************************************
                            *     ORCA property calculations      *
                            ***************************************

                                    ---------------------
                                    Active property flags
                                    ---------------------
   (+) Dipole Moment
   (+) Chemical Shifts
   (+) Nuclear properties (Hyperfine,Quadrupole)


------------------------------------------------------------------------------
                       ORCA ELECTRIC PROPERTIES CALCULATION
------------------------------------------------------------------------------

Dipole Moment Calculation                       ... on
Quadrupole Moment Calculation                   ... off
Polarizability Calculation                      ... off
GBWName                                         ... C2N2_20.gbw
Electron density                                ... C2N2_20.scfp
The origin for moment calculation is the CENTER OF MASS  = ( 3.150371,  0.414128 -0.167438)

-------------
DIPOLE MOMENT
-------------
                                X             Y             Z
Electronic contribution:      0.00004       0.00016       0.00002
Nuclear contribution   :     -0.00006      -0.00014      -0.00003
                        -----------------------------------------
Total Dipole Moment    :     -0.00002       0.00002      -0.00001
                        -----------------------------------------
Magnitude (a.u.)       :      0.00004
Magnitude (Debye)      :      0.00009



--------------------
Rotational spectrum 
--------------------
 
Rotational constants in cm-1:     2.659369     0.665332     0.665327 
Rotational constants in MHz : 79725.887592 19946.166202 19945.998448 

 Dipole components along the rotational axes: 
x,y,z [a.u.] :     0.000022    -0.000018    -0.000020 
x,y,z [Debye]:     0.000057    -0.000046    -0.000052 

 


           ************************************************************
           *        Program running with 5 parallel MPI-processes     *
           *              working on a common directory               *
           ************************************************************
------------------------------------------------------------------------------
                                ORCA EPR/NMR CALCULATION
------------------------------------------------------------------------------

GBWName                      ... C2N2_20.gbw
Electron density             ... C2N2_20.scfp
Spin density                 ... C2N2_20.scfr
Treatment of gauge           ... GIAO (approximations 1/2el = 0,0)
Details of the CP(SCF) procedure:
       Solver   = POPLE   
       MaxIter  =    64   
       Tolerance=    1.000e-04
       COSX Grid=     1   
       Op-0     =   0-  8 =>   9- 97
Multiplicity                 ... 1
g-tensor                     ... 0
NMR chemical shifts          ... 1
NMR spin-spin couplings      ... 0
NMR spectrum                 ... 0
Number of nuclei for epr/nmr ... 8
   Nucleus:   0C 
       Hyperfine : Isotope=   13 I=   0.500 P= 134.190
       Quadrupole: Isotope=   13 I=   0.500 Q=   0.000
       Spin-Orbit: Zeff=   3.600
       Nuclear Spin-Spin: Gn=   0.000
       EPRNMR Input: 
       rho(0)=N f(grad)=N a(iso)=N a(dip)=N a(orb)=N sigma(nmr)=Y spin-spin(nmr)=all-N,DSO-N,PSO-N,FC-N,SD-N
   Nucleus:   1C 
       Hyperfine : Isotope=   13 I=   0.500 P= 134.190
       Quadrupole: Isotope=   13 I=   0.500 Q=   0.000
       Spin-Orbit: Zeff=   3.600
       Nuclear Spin-Spin: Gn=   0.000
       EPRNMR Input: 
       rho(0)=N f(grad)=N a(iso)=N a(dip)=N a(orb)=N sigma(nmr)=Y spin-spin(nmr)=all-N,DSO-N,PSO-N,FC-N,SD-N
   Nucleus:   2H 
       Hyperfine : Isotope=    1 I=   0.500 P= 533.551
       Quadrupole: Isotope=    2 I=   1.000 Q=   0.003
       Spin-Orbit: Zeff=   1.000
       Nuclear Spin-Spin: Gn=   0.000
       EPRNMR Input: 
       rho(0)=N f(grad)=N a(iso)=N a(dip)=N a(orb)=N sigma(nmr)=Y spin-spin(nmr)=all-N,DSO-N,PSO-N,FC-N,SD-N
   Nucleus:   3H 
       Hyperfine : Isotope=    1 I=   0.500 P= 533.551
       Quadrupole: Isotope=    2 I=   1.000 Q=   0.003
       Spin-Orbit: Zeff=   1.000
       Nuclear Spin-Spin: Gn=   0.000
       EPRNMR Input: 
       rho(0)=N f(grad)=N a(iso)=N a(dip)=N a(orb)=N sigma(nmr)=Y spin-spin(nmr)=all-N,DSO-N,PSO-N,FC-N,SD-N
   Nucleus:   4H 
       Hyperfine : Isotope=    1 I=   0.500 P= 533.551
       Quadrupole: Isotope=    2 I=   1.000 Q=   0.003
       Spin-Orbit: Zeff=   1.000
       Nuclear Spin-Spin: Gn=   0.000
       EPRNMR Input: 
       rho(0)=N f(grad)=N a(iso)=N a(dip)=N a(orb)=N sigma(nmr)=Y spin-spin(nmr)=all-N,DSO-N,PSO-N,FC-N,SD-N
   Nucleus:   5H 
       Hyperfine : Isotope=    1 I=   0.500 P= 533.551
       Quadrupole: Isotope=    2 I=   1.000 Q=   0.003
       Spin-Orbit: Zeff=   1.000
       Nuclear Spin-Spin: Gn=   0.000
       EPRNMR Input: 
       rho(0)=N f(grad)=N a(iso)=N a(dip)=N a(orb)=N sigma(nmr)=Y spin-spin(nmr)=all-N,DSO-N,PSO-N,FC-N,SD-N
   Nucleus:   6H 
       Hyperfine : Isotope=    1 I=   0.500 P= 533.551
       Quadrupole: Isotope=    2 I=   1.000 Q=   0.003
       Spin-Orbit: Zeff=   1.000
       Nuclear Spin-Spin: Gn=   0.000
       EPRNMR Input: 
       rho(0)=N f(grad)=N a(iso)=N a(dip)=N a(orb)=N sigma(nmr)=Y spin-spin(nmr)=all-N,DSO-N,PSO-N,FC-N,SD-N
   Nucleus:   7H 
       Hyperfine : Isotope=    1 I=   0.500 P= 533.551
       Quadrupole: Isotope=    2 I=   1.000 Q=   0.003
       Spin-Orbit: Zeff=   1.000
       Nuclear Spin-Spin: Gn=   0.000
       EPRNMR Input: 
       rho(0)=N f(grad)=N a(iso)=N a(dip)=N a(orb)=N sigma(nmr)=Y spin-spin(nmr)=all-N,DSO-N,PSO-N,FC-N,SD-N
Forming RHS of the CP-SCF equations         ... 
Calculating right hand sides for GIAO treatment        ... 
  Entering RightHandSide GIAO. ScalHFX=    0.2500 NeedHFX=1
     -> 1-electron GIAO integrals will be done analytically
     -> RIJCOSX used in SCF. Same chosen for GIAO calculation.
     Making grid for GIAO integrations   ...

GRID GIAO
---------

General Integration Accuracy     IntAcc      ... 4.388
Radial Grid Type                 RadialGrid  ... OptM3 with GC (2021)
Angular Grid (max. ang.)         AngularGrid ... 4 (Lebedev-302)
Angular grid pruning method      GridPruning ... 4 (adaptive)
Weight generation scheme         WeightScheme... Becke
Basis function cutoff            BFCut       ... 1.0000e-11
Integration weight cutoff        WCut        ... 1.0000e-14
Angular grids for H and He will be reduced by one unit
Partially contracted basis set               ... off
Rotationally invariant grid construction     ... off

Total number of grid points                  ...    31677
Total number of batches                      ...      498
Average number of points per batch           ...       63
Average number of grid points per atom       ...     3960

  One-electron GIAO integrals (SHARK)     ... done
  Calculating G(B)[P]                     ... (RI-J: SHARK-ok) (COSX-ok) (add-J+K:ok) => dG/dB done
  DFT XC-terms                            ... done
  Extracting occupied and virtual blocks  ... 
  Operator  0  NO=   9 NV=  89 
  Transforming and RHS contribution       ... done
  Adding eps_i * S(B)_ai terms            ... done
  Projecting overlap derivatives          ... done
  Building G[dS/dB_ij] (COSX)             ... done
  Transforming to MO basis                ... done
  Summing G[dS/dB_ij] into RHS contribs.  ... done

  GIAO profiling information: 
    Total GIAO time               ...       0.9 sec
       GIAO 1-electron integrals  ...       0.0 sec (  0.6%)
       GIAO G(dS/dB) terms        ...       0.1 sec ( 11.5%)
       GIAO RI-J                  ...       0.1 sec (  5.8%)
       GIAO COSX                  ...       0.2 sec ( 25.9%)
       GIAO XC-terms              ...       0.4 sec ( 44.0%)
       Right hand side assembly   ...       0.0 sec (  0.1%)

  GIAO right hand side done


------------------------------------------------------------------------------
                           ORCA CP-SCF CALCULATION
------------------------------------------------------------------------------

Input orbitals are from        ... C2N2_20.gbw
Input Perturbation             ... C2N2_20.pin.tmp
Wavefunction output            ... C2N2_20.pout.tmp
Perturbation mode              ... Imaginary perturbation
Solver                         ... POPLE
Max. number of iterations      ... 64
Convergence tolerance          ... 1.000e-04
Integral handling              ... Direct
DFT GridXC                     ... 1
COSX GridX                     ... 1
COSX IntAccX                   ... 3.067
COSX Algorithm                 ... Auto
Number of perturbations        ... 3
Number of operators            ... 1
Orbital ranges used for CP-SCF:
 Operator 0:  Orbitals   0...  8  to   9... 97
Variables per perturbation     ... 801
DFT calculation                         ... on
XC functional terms                     ... off
Hybrid DFT                              ... on
   Exchange mixing (SCF)                ...  0.250
   Exchange mixing (CP-SCF)             ...  0.250
   GGA exch. scaling(SCF)               ...  0.750
   GGA exch. scaling (CP-SCF)           ...  0.750
   GGA corr. scaling (SCF)              ...  1.000
   GGA corr. scaling (CP-SCF)           ...  1.000

CP-SCF GRID
-----------

General Integration Accuracy     IntAcc      ... 3.467
Radial Grid Type                 RadialGrid  ... OptM3 with GC (2021)
Angular Grid (max. ang.)         AngularGrid ... 1 (Lebedev-50)
Angular grid pruning method      GridPruning ... 4 (adaptive)
Weight generation scheme         WeightScheme... Becke
Basis function cutoff            BFCut       ... 1.0000e-11
Integration weight cutoff        WCut        ... 1.0000e-14
Angular grids for H and He will be reduced by one unit
Partially contracted basis set               ... off
Rotationally invariant grid construction     ... off

Total number of grid points                  ...     4379
Total number of batches                      ...       72
Average number of points per batch           ...       60
Average number of grid points per atom       ...      547

CP-SCF GRIDX
------------

General Integration Accuracy     IntAcc      ... 3.067
Radial Grid Type                 RadialGrid  ... OptM3 with GC (2021)
Angular Grid (max. ang.)         AngularGrid ... 1 (Lebedev-50)
Angular grid pruning method      GridPruning ... 4 (adaptive)
Weight generation scheme         WeightScheme... Becke
Basis function cutoff            BFCut       ... 1.0000e-11
Integration weight cutoff        WCut        ... 1.0000e-14
Angular grids for H and He will be reduced by one unit
Partially contracted basis set               ... on
Rotationally invariant grid construction     ... off

Total number of grid points                  ...     2067
Total number of batches                      ...       37
Average number of points per batch           ...       55
Average number of grid points per atom       ...      258

Memory available               ... 1014.3 MB
Memory needed per perturbation ...   0.4 MB
Perturbations treated per batch... 3
Number of batches              ... 1
     CP-SCF ITERATION   0:   2.0225e-01 (   0.1 sec   0/  3 done)
     CP-SCF ITERATION   1:   2.2312e-03 (   0.1 sec   0/  3 done)
     CP-SCF ITERATION   2:   9.2257e-05 (   0.1 sec   3/  3 done)
                    *** THE CP-SCF HAS CONVERGED ***

Forming final perturbed densities           ... done
Transforming perturbed density to AO basis  ... done

Magnetic field perturbation calculated in  1.184 sec

---------------
CHEMICAL SHIFTS
---------------

Note: using conversion factor for au to ppm alpha^2/2 =   26.625677252 
GIAO: Analytic para- and diamagnetic shielding integrals (SHARK)       ...done
 --------------
 Nucleus   0C :
 --------------

Diamagnetic contribution to the shielding tensor (ppm) : 
           253.857         -0.408        -0.965
             0.098        243.029        -0.090
            -0.976          0.113       243.120

Paramagnetic contribution to the shielding tensor (ppm): 
           -59.468          0.399        -0.480
             0.196        -66.820         1.927
            -0.451         -1.997       -66.812

Total shielding tensor (ppm): 
           194.389         -0.009        -1.445
             0.294        176.209         1.837
            -1.427         -1.883       176.307


 Diagonalized sT*s matrix:
 
 sDSO           243.034          243.032          253.940  iso=     246.669
 sPSO           -66.847          -66.818          -59.436  iso=     -64.367
        ---------------  ---------------  ---------------
 Total          176.187          176.215          194.504  iso=     182.302

 --------------
 Nucleus   1C :
 --------------

Diamagnetic contribution to the shielding tensor (ppm) : 
           253.811          0.630        -1.396
             0.182        234.897         0.238
            -1.605         -0.294       235.016

Paramagnetic contribution to the shielding tensor (ppm): 
           -59.433         -0.344        -0.015
            -0.186        -58.706        -2.113
             0.162          2.138       -58.712

Total shielding tensor (ppm): 
           194.378          0.286        -1.411
            -0.004        176.191        -1.875
            -1.443          1.844       176.304


 Diagonalized sT*s matrix:
 
 sDSO           234.898          234.891          253.935  iso=     241.241
 sPSO           -58.711          -58.696          -59.444  iso=     -58.950
        ---------------  ---------------  ---------------
 Total          176.186          176.195          194.491  iso=     182.291

 --------------
 Nucleus   2H :
 --------------

Diamagnetic contribution to the shielding tensor (ppm) : 
            29.014          2.348        -4.389
             1.375         30.681        -5.122
            -2.953         -5.181        34.030

Paramagnetic contribution to the shielding tensor (ppm): 
             2.559          0.042         0.780
             0.148         -2.239         1.563
             0.616          1.499        -1.654

Total shielding tensor (ppm): 
            31.572          2.391        -3.609
             1.523         28.443        -3.558
            -2.336         -3.682        32.376


 Diagonalized sT*s matrix:
 
 sDSO            27.088           27.767           38.870  iso=      31.242
 sPSO            -0.805            1.441           -1.969  iso=      -0.444
        ---------------  ---------------  ---------------
 Total           26.283           29.208           36.901  iso=      30.797

 --------------
 Nucleus   3H :
 --------------

Diamagnetic contribution to the shielding tensor (ppm) : 
            30.295          2.584         5.448
             2.285         28.487         3.539
             3.576          3.575        34.926

Paramagnetic contribution to the shielding tensor (ppm): 
             2.290         -0.458        -1.380
            -0.814         -0.407        -0.348
            -0.902         -0.512        -3.204

Total shielding tensor (ppm): 
            32.585          2.126         4.068
             1.471         28.080         3.190
             2.674          3.063        31.722


 Diagonalized sT*s matrix:
 
 sDSO            27.031           27.803           38.874  iso=      31.236
 sPSO            -0.752            1.405           -1.975  iso=      -0.440
        ---------------  ---------------  ---------------
 Total           26.279           29.208           36.899  iso=      30.795

 --------------
 Nucleus   4H :
 --------------

Diamagnetic contribution to the shielding tensor (ppm) : 
            29.364         -5.812        -0.649
            -3.716         36.948         1.520
            -0.080          1.743        27.141

Paramagnetic contribution to the shielding tensor (ppm): 
             2.671          1.332        -0.261
             0.775         -3.003        -1.060
            -0.707         -1.224        -0.734

Total shielding tensor (ppm): 
            32.035         -4.480        -0.911
            -2.941         33.945         0.461
            -0.787          0.518        26.407


 Diagonalized sT*s matrix:
 
 sDSO            27.100           27.427           38.927  iso=      31.151
 sPSO            -0.819            1.780           -2.027  iso=      -0.355
        ---------------  ---------------  ---------------
 Total           26.281           29.207           36.899  iso=      30.796

 --------------
 Nucleus   5H :
 --------------

Diamagnetic contribution to the shielding tensor (ppm) : 
            29.120         -3.345        -4.015
            -4.808         27.611         6.265
            -4.897          6.060        28.078

Paramagnetic contribution to the shielding tensor (ppm): 
             2.607          0.227         0.940
             2.837          2.557        -2.300
             2.846         -1.934         2.415

Total shielding tensor (ppm): 
            31.727         -3.117        -3.075
            -1.971         30.168         3.965
            -2.051          4.126        30.494


 Diagonalized sT*s matrix:
 
 sDSO            21.684           25.047           38.078  iso=      28.270
 sPSO             4.597            4.162           -1.179  iso=       2.527
        ---------------  ---------------  ---------------
 Total           26.281           29.209           36.899  iso=      30.796

 --------------
 Nucleus   6H :
 --------------

Diamagnetic contribution to the shielding tensor (ppm) : 
            28.942          5.306        -2.112
             6.443         32.635        -3.520
            -2.729         -3.526        22.941

Paramagnetic contribution to the shielding tensor (ppm): 
             2.852         -1.232         0.213
            -3.836          0.887         1.293
             1.317          1.251         4.137

Total shielding tensor (ppm): 
            31.794          4.074        -1.899
             2.607         33.522        -2.227
            -1.412         -2.275        27.078


 Diagonalized sT*s matrix:
 
 sDSO            21.738           24.637           38.144  iso=      28.173
 sPSO             4.545            4.574           -1.243  iso=       2.625
        ---------------  ---------------  ---------------
 Total           26.283           29.210           36.902  iso=      30.798

 --------------
 Nucleus   7H :
 --------------

Diamagnetic contribution to the shielding tensor (ppm) : 
            30.542         -1.097         5.823
            -1.572         22.416        -2.589
             7.119         -2.762        31.661

Paramagnetic contribution to the shielding tensor (ppm): 
             2.133          0.192        -1.299
             0.972          4.369         0.755
            -4.109          1.004         1.272

Total shielding tensor (ppm): 
            32.675         -0.905         4.524
            -0.600         26.786        -1.834
             3.010         -1.757        32.933


 Diagonalized sT*s matrix:
 
 sDSO            21.669           24.828           38.123  iso=      28.206
 sPSO             4.615            4.382           -1.223  iso=       2.591
        ---------------  ---------------  ---------------
 Total           26.284           29.210           36.899  iso=      30.798



--------------------------------
CHEMICAL SHIELDING SUMMARY (ppm)
--------------------------------


  Nucleus  Element    Isotropic     Anisotropy
  -------  -------  ------------   ------------
      0       C          182.302         18.302 
      1       C          182.291         18.300 
      2       H           30.797          9.156 
      3       H           30.795          9.155 
      4       H           30.796          9.155 
      5       H           30.796          9.154 
      6       H           30.798          9.155 
      7       H           30.798          9.152 



Maximum memory used throughout the entire EPRNMR-calculation: 13.0 MB

----------------------------------------------------------------------------
                           ORCA NUMERICAL FREQUENCIES
                              (5-process run)
----------------------------------------------------------------------------

Number of atoms                ... 8
Central differences            ... used
Number of displacements        ... 48
Numerical increment            ... 5.000e-03 bohr
IR-spectrum generation         ... on
Raman-spectrum generation      ... off
Surface Crossing Hessian       ... off

The output will be reduced. Please look at the following files:
SCF program output             ... >C2N2_20.lastscf
Integral program output        ... >C2N2_20.lastint
Gradient program output        ... >C2N2_20.lastgrad
Dipole moment program output   ... >C2N2_20.lastmom
AutoCI program output          ... >C2N2_20.lastautoci

	<< Calculating on displaced geometry   4 (of  48) >>
	<< Calculating on displaced geometry   5 (of  48) >>
	<< Calculating on displaced geometry   2 (of  48) >>
	<< Calculating on displaced geometry   3 (of  48) >>
	<< Calculating on displaced geometry   1 (of  48) >>
	<< Calculating on displaced geometry   7 (of  48) >>
	<< Calculating on displaced geometry   6 (of  48) >>
	<< Calculating on displaced geometry   8 (of  48) >>
	<< Calculating on displaced geometry  10 (of  48) >>
	<< Calculating on displaced geometry   9 (of  48) >>
	<< Calculating on displaced geometry  12 (of  48) >>
	<< Calculating on displaced geometry  11 (of  48) >>
	<< Calculating on displaced geometry  13 (of  48) >>
	<< Calculating on displaced geometry  14 (of  48) >>
	<< Calculating on displaced geometry  15 (of  48) >>
	<< Calculating on displaced geometry  16 (of  48) >>
	<< Calculating on displaced geometry  17 (of  48) >>
	<< Calculating on displaced geometry  19 (of  48) >>
	<< Calculating on displaced geometry  18 (of  48) >>
	<< Calculating on displaced geometry  20 (of  48) >>
	<< Calculating on displaced geometry  21 (of  48) >>
	<< Calculating on displaced geometry  22 (of  48) >>
	<< Calculating on displaced geometry  23 (of  48) >>
	<< Calculating on displaced geometry  24 (of  48) >>
	<< Calculating on displaced geometry  25 (of  48) >>
	<< Calculating on displaced geometry  27 (of  48) >>
	<< Calculating on displaced geometry  26 (of  48) >>
	<< Calculating on displaced geometry  28 (of  48) >>
	<< Calculating on displaced geometry  29 (of  48) >>
	<< Calculating on displaced geometry  30 (of  48) >>
	<< Calculating on displaced geometry  31 (of  48) >>
	<< Calculating on displaced geometry  32 (of  48) >>
	<< Calculating on displaced geometry  33 (of  48) >>
	<< Calculating on displaced geometry  34 (of  48) >>
	<< Calculating on displaced geometry  35 (of  48) >>
	<< Calculating on displaced geometry  36 (of  48) >>
	<< Calculating on displaced geometry  37 (of  48) >>
	<< Calculating on displaced geometry  38 (of  48) >>
	<< Calculating on displaced geometry  39 (of  48) >>
	<< Calculating on displaced geometry  40 (of  48) >>
	<< Calculating on displaced geometry  41 (of  48) >>
	<< Calculating on displaced geometry  42 (of  48) >>
	<< Calculating on displaced geometry  43 (of  48) >>
	<< Calculating on displaced geometry  44 (of  48) >>
	<< Calculating on displaced geometry  45 (of  48) >>
	<< Calculating on displaced geometry  46 (of  48) >>
	<< Calculating on displaced geometry  47 (of  48) >>
	<< Calculating on displaced geometry  48 (of  48) >>

-----------------------
VIBRATIONAL FREQUENCIES
-----------------------

Scaling factor for frequencies =  1.000000000 (already applied!)

   0:         0.00 cm**-1
   1:         0.00 cm**-1
   2:         0.00 cm**-1
   3:         0.00 cm**-1
   4:         0.00 cm**-1
   5:         0.00 cm**-1
   6:      -145.91 cm**-1 ***imaginary mode***
   7:       890.90 cm**-1
   8:       892.10 cm**-1
   9:      1013.68 cm**-1
  10:      1191.54 cm**-1
  11:      1191.87 cm**-1
  12:      1386.10 cm**-1
  13:      1414.42 cm**-1
  14:      1491.42 cm**-1
  15:      1492.03 cm**-1
  16:      1501.21 cm**-1
  17:      1501.50 cm**-1
  18:      3042.51 cm**-1
  19:      3047.34 cm**-1
  20:      3111.59 cm**-1
  21:      3112.28 cm**-1
  22:      3134.85 cm**-1
  23:      3135.58 cm**-1


------------
NORMAL MODES
------------

These modes are the cartesian displacements weighted by the diagonal matrix
M(i,i)=1/sqrt(m[i]) where m[i] is the mass of the displaced atom
Thus, these vectors are normalized but *not* orthogonal

                  0          1          2          3          4          5    
      0       0.000000   0.000000   0.000000   0.000000   0.000000   0.000000
      1       0.000000   0.000000   0.000000   0.000000   0.000000   0.000000
      2       0.000000   0.000000   0.000000   0.000000   0.000000   0.000000
      3       0.000000   0.000000   0.000000   0.000000   0.000000   0.000000
      4       0.000000   0.000000   0.000000   0.000000   0.000000   0.000000
      5       0.000000   0.000000   0.000000   0.000000   0.000000   0.000000
      6       0.000000   0.000000   0.000000   0.000000   0.000000   0.000000
      7       0.000000   0.000000   0.000000   0.000000   0.000000   0.000000
      8       0.000000   0.000000   0.000000   0.000000   0.000000   0.000000
      9       0.000000   0.000000   0.000000   0.000000   0.000000   0.000000
     10       0.000000   0.000000   0.000000   0.000000   0.000000   0.000000
     11       0.000000   0.000000   0.000000   0.000000   0.000000   0.000000
     12       0.000000   0.000000   0.000000   0.000000   0.000000   0.000000
     13       0.000000   0.000000   0.000000   0.000000   0.000000   0.000000
     14       0.000000   0.000000   0.000000   0.000000   0.000000   0.000000
     15       0.000000   0.000000   0.000000   0.000000   0.000000   0.000000
     16       0.000000   0.000000   0.000000   0.000000   0.000000   0.000000
     17       0.000000   0.000000   0.000000   0.000000   0.000000   0.000000
     18       0.000000   0.000000   0.000000   0.000000   0.000000   0.000000
     19       0.000000   0.000000   0.000000   0.000000   0.000000   0.000000
     20       0.000000   0.000000   0.000000   0.000000   0.000000   0.000000
     21       0.000000   0.000000   0.000000   0.000000   0.000000   0.000000
     22       0.000000   0.000000   0.000000   0.000000   0.000000   0.000000
     23       0.000000   0.000000   0.000000   0.000000   0.000000   0.000000
                  6          7          8          9         10         11    
      0       0.007453  -0.003221  -0.002647  -0.357612   0.006115   0.009118
      1       0.000108   0.034805  -0.033586  -0.002577  -0.123397   0.071425
      2      -0.000828  -0.033417  -0.034792   0.028060   0.071221   0.123232
      3      -0.007382  -0.001542  -0.003191   0.357550  -0.006133  -0.009217
      4      -0.000078   0.044539  -0.018589   0.002530   0.126775  -0.065322
      5       0.000602  -0.018630  -0.044424  -0.027733  -0.065011  -0.126543
      6       0.001182   0.483211   0.178233  -0.350305  -0.454411  -0.198594
      7      -0.342495  -0.141602   0.151599  -0.040825   0.120041  -0.199348
      8      -0.220617   0.031433   0.148997   0.013074   0.055100  -0.126718
      9      -0.003320  -0.083513  -0.488333  -0.350508   0.051637   0.485264
     10       0.361598  -0.194150   0.091731   0.027021   0.231665  -0.036639
     11      -0.187580   0.129941   0.153777   0.001976  -0.140600  -0.073407
     12       0.046538  -0.371963   0.344154  -0.344156   0.380429  -0.317473
     13      -0.018814  -0.125757   0.084966   0.005062   0.046420  -0.029679
     14       0.406789   0.165963   0.158234   0.066134  -0.180318  -0.199540
     15       0.010723  -0.143865   0.491020   0.351009  -0.186437   0.458504
     16      -0.280517  -0.181425   0.065367  -0.029393  -0.194511  -0.031051
     17       0.296522   0.145910   0.103804  -0.005988   0.178033   0.064662
     18      -0.044818   0.503705  -0.089796   0.342687   0.497278  -0.032044
     19      -0.116551  -0.116371   0.099019   0.000396  -0.034772   0.072969
     20      -0.388707   0.057939   0.210540  -0.068420   0.016612   0.258204
     21      -0.011152  -0.330819  -0.365711   0.352016  -0.288285  -0.394477
     22       0.396424  -0.186140   0.129012   0.038296  -0.209087   0.151025
     23       0.096292   0.088986   0.168560  -0.010677  -0.002821   0.116263
                 12         13         14         15         16         17    
      0       0.093944   0.089274  -0.002347   0.000235   0.003392  -0.002369
      1       0.000437   0.000781  -0.002496  -0.021421   0.023420   0.042454
      2      -0.007548  -0.007239  -0.025176   0.000251   0.039888  -0.023422
      3       0.092533  -0.090863   0.000102  -0.001735   0.002206  -0.002874
      4       0.001121  -0.000800   0.018338   0.009315   0.035521   0.033839
      5      -0.007361   0.007013   0.005620  -0.021363   0.034721  -0.033269
      6      -0.386531  -0.380223  -0.147995   0.261352   0.116098  -0.214821
      7       0.087639   0.078064   0.387883   0.187877  -0.361836  -0.185575
      8      -0.104628  -0.108824   0.183251   0.211389  -0.177893  -0.227515
      9      -0.361835  -0.356314   0.304213  -0.018162  -0.208471  -0.000821
     10       0.069128   0.074728  -0.106509   0.414797   0.070212  -0.462703
     11       0.173022   0.167432  -0.108166  -0.219920   0.105246   0.240071
     12      -0.372143  -0.365032  -0.109038  -0.263157   0.052318   0.242495
     13      -0.164403  -0.162163  -0.079152  -0.093704   0.075314   0.098500
     14       0.022845   0.031060   0.483366  -0.172451  -0.420974   0.220302
     15      -0.374881   0.382043   0.278699   0.048288   0.266450   0.004266
     16      -0.119737   0.115413   0.066565  -0.338590   0.074100  -0.342903
     17      -0.078446   0.087289   0.064446   0.359314   0.090765   0.361266
     18      -0.371184   0.377164  -0.146942  -0.247737  -0.183964  -0.169561
     19       0.148955  -0.153921  -0.059610   0.172959  -0.069941   0.174621
     20      -0.018248   0.010853  -0.363365   0.244218  -0.443610   0.248944
     21      -0.355422   0.361299  -0.152198   0.237285  -0.109129   0.200922
     22      -0.040145   0.048105  -0.397945  -0.199086  -0.490166  -0.191028
     23       0.183097  -0.185116  -0.026509  -0.170975  -0.042555  -0.167554
                 18         19         20         21         22         23    
      0      -0.034322   0.034023  -0.003204  -0.003935  -0.002577  -0.004541
      1      -0.000161  -0.000099  -0.047836   0.046049  -0.054614   0.035640
      2       0.002550  -0.002698  -0.043140  -0.047368  -0.038099  -0.055036
      3      -0.032369  -0.035857   0.003891   0.003760  -0.002851  -0.004291
      4       0.000285   0.000596   0.045928  -0.045574  -0.053167   0.040458
      5       0.002691   0.003122   0.048036   0.046163  -0.037733  -0.052243
      6       0.108036  -0.102152  -0.025166  -0.158937  -0.005618  -0.161012
      7       0.217113  -0.204610  -0.055974  -0.294018  -0.022457  -0.295342
      8      -0.340049   0.321940   0.061660   0.463284   0.007497   0.464320
      9       0.162694  -0.152878   0.215751   0.075737   0.209541   0.117299
     10       0.179902  -0.170386   0.220619   0.092688   0.212877   0.134465
     11       0.342142  -0.321172   0.430353   0.147350   0.416243   0.226435
     12       0.137622  -0.131205  -0.152330   0.130816  -0.173047   0.097727
     13      -0.394994   0.376346   0.409815  -0.351652   0.460358  -0.263548
     14      -0.032426   0.029871   0.026563  -0.041628   0.030345  -0.034945
     15       0.112220   0.119238   0.173076  -0.002636  -0.168874  -0.017331
     16      -0.276474  -0.293031  -0.396468   0.000406   0.381251   0.047673
     17      -0.267588  -0.285413  -0.382073   0.019848   0.374148   0.026291
     18       0.116100   0.122160  -0.083399   0.159070   0.110157  -0.150892
     19       0.355398   0.374073  -0.234811   0.454985   0.311603  -0.427033
     20      -0.118388  -0.123263   0.092977  -0.146641  -0.116302   0.133273
     21       0.157993   0.166681  -0.136116  -0.201971   0.092523   0.219444
     22      -0.082433  -0.088306   0.079554   0.091926  -0.059353  -0.102973
     23       0.353861   0.372991  -0.287824  -0.427846   0.191656   0.462924


-----------
IR SPECTRUM
-----------

 Mode   freq       eps      Int      T**2         TX        TY        TZ
       cm**-1   L/(mol*cm) km/mol    a.u.
----------------------------------------------------------------------------
  7:    890.90   0.000847    4.28  0.000297  ( 0.001028 -0.014259  0.009602)
  8:    892.10   0.000997    5.04  0.000349  ( 0.001265  0.009813  0.015838)
  9:   1013.68   0.000000    0.00  0.000000  (-0.000007 -0.000077 -0.000089)
 10:   1191.54   0.000006    0.03  0.000002  (-0.000007  0.000629  0.001096)
 11:   1191.87   0.000017    0.09  0.000005  ( 0.000028  0.001854 -0.001054)
 12:   1386.10   0.000709    3.58  0.000160  (-0.012557 -0.000381  0.001312)
 13:   1414.42   0.000001    0.00  0.000000  ( 0.000085  0.000411  0.000088)
 14:   1491.42   0.000191    0.96  0.000040  ( 0.000168 -0.004157  0.004757)
 15:   1492.03   0.000076    0.38  0.000016  ( 0.000069  0.002195  0.003323)
 16:   1501.21   0.002367   11.96  0.000492  (-0.001323 -0.013026 -0.017903)
 17:   1501.50   0.001993   10.07  0.000414  ( 0.001275 -0.015974  0.012545)
 18:   3042.51   0.010869   54.93  0.001115  (-0.033286 -0.000585  0.002552)
 19:   3047.34   0.000013    0.07  0.000001  (-0.000877 -0.000771  0.000062)
 20:   3111.59   0.000003    0.01  0.000000  ( 0.000160  0.000409 -0.000246)
 21:   3112.28   0.000003    0.02  0.000000  (-0.000070  0.000518  0.000245)
 22:   3134.85   0.008711   44.02  0.000867  (-0.001330 -0.024099 -0.016872)
 23:   3135.58   0.009003   45.50  0.000896  (-0.001841  0.017294 -0.024362)

* The epsilon (eps) is given for a Dirac delta lineshape.
** The dipole moment derivative (T) already includes vibrational overlap.

The first frequency considered to be a vibration is 7
The total number of vibrations considered is 17


--------------------------
THERMOCHEMISTRY AT 298.15K
--------------------------

Temperature         ... 298.15 K
Pressure            ... 1.00 atm
Total Mass          ... 30.07 AMU

Throughout the following assumptions are being made:
  (1) The electronic state is orbitally nondegenerate
  (2) There are no thermally accessible electronically excited states
  (3) Hindered rotations indicated by low frequency modes are not
      treated as such but are treated as vibrations and this may
      cause some error
  (4) All equations used are the standard statistical mechanics
      equations for an ideal gas
  (5) All vibrations are strictly harmonic

freq.     890.90  E(vib)   ...       0.04 
freq.     892.10  E(vib)   ...       0.03 
freq.    1013.68  E(vib)   ...       0.02 
freq.    1191.54  E(vib)   ...       0.01 
freq.    1191.87  E(vib)   ...       0.01 
freq.    1386.10  E(vib)   ...       0.00 
freq.    1414.42  E(vib)   ...       0.00 
freq.    1491.42  E(vib)   ...       0.00 
freq.    1492.03  E(vib)   ...       0.00 
freq.    1501.21  E(vib)   ...       0.00 
freq.    1501.50  E(vib)   ...       0.00 
freq.    3042.51  E(vib)   ...       0.00 
freq.    3047.34  E(vib)   ...       0.00 
freq.    3111.59  E(vib)   ...       0.00 
freq.    3112.28  E(vib)   ...       0.00 
freq.    3134.85  E(vib)   ...       0.00 
freq.    3135.58  E(vib)   ...       0.00 

------------
INNER ENERGY
------------

The inner energy is: U= E(el) + E(ZPE) + E(vib) + E(rot) + E(trans)
    E(el)   - is the total energy from the electronic structure calculation
              = E(kin-el) + E(nuc-el) + E(el-el) + E(nuc-nuc)
    E(ZPE)  - the the zero temperature vibrational energy from the frequency calculation
    E(vib)  - the the finite temperature correction to E(ZPE) due to population
              of excited vibrational states
    E(rot)  - is the rotational thermal energy
    E(trans)- is the translational thermal energy

Summary of contributions to the inner energy U:
Electronic energy                ...    -79.74667348 Eh
Zero point energy                ...      0.07415650 Eh      46.53 kcal/mol
Thermal vibrational correction   ...      0.00021597 Eh       0.14 kcal/mol
Thermal rotational correction    ...      0.00141627 Eh       0.89 kcal/mol
Thermal translational correction ...      0.00141627 Eh       0.89 kcal/mol
-----------------------------------------------------------------------
Total thermal energy                    -79.66946846 Eh


Summary of corrections to the electronic energy:
(perhaps to be used in another calculation)
Total thermal correction                  0.00304851 Eh       1.91 kcal/mol
Non-thermal (ZPE) correction              0.07415650 Eh      46.53 kcal/mol
-----------------------------------------------------------------------
Total correction                          0.07720501 Eh      48.45 kcal/mol


--------
ENTHALPY
--------

The enthalpy is H = U + kB*T
                kB is Boltzmann's constant
Total free energy                 ...    -79.66946846 Eh 
Thermal Enthalpy correction       ...      0.00094421 Eh       0.59 kcal/mol
-----------------------------------------------------------------------
Total Enthalpy                    ...    -79.66852425 Eh


Note: Rotational entropy computed according to Herzberg 
Infrared and Raman Spectra, Chapter V,1, Van Nostrand Reinhold, 1945 
Point Group:  D3, Symmetry Number:   6  
Rotational constants in cm-1:     2.659369     0.665332     0.665327 

Vibrational entropy computed according to the QRRHO of S. Grimme
Chem.Eur.J. 2012 18 9955


-------
ENTROPY
-------

The entropy contributions are T*S = T*(S(el)+S(vib)+S(rot)+S(trans))
     S(el)   - electronic entropy
     S(vib)  - vibrational entropy
     S(rot)  - rotational entropy
     S(trans)- translational entropy
The entropies will be listed as multiplied by the temperature to get
units of energy

Electronic entropy                ...      0.00000000 Eh      0.00 kcal/mol
Vibrational entropy               ...      0.00025993 Eh      0.16 kcal/mol
Rotational entropy                ...      0.00774205 Eh      4.86 kcal/mol
Translational entropy             ...      0.01716939 Eh     10.77 kcal/mol
-----------------------------------------------------------------------
Final entropy term                ...      0.02517137 Eh     15.80 kcal/mol

In case the symmetry of your molecule has not been determined correctly
or in case you have a reason to use a different symmetry number we print 
out the resulting rotational entropy values for sn=1,12 :
 --------------------------------------------------------
|  sn= 1 | S(rot)=       0.00943379 Eh      5.92 kcal/mol|
|  sn= 2 | S(rot)=       0.00877934 Eh      5.51 kcal/mol|
|  sn= 3 | S(rot)=       0.00839650 Eh      5.27 kcal/mol|
|  sn= 4 | S(rot)=       0.00812488 Eh      5.10 kcal/mol|
|  sn= 5 | S(rot)=       0.00791419 Eh      4.97 kcal/mol|
|  sn= 6 | S(rot)=       0.00774205 Eh      4.86 kcal/mol|
|  sn= 7 | S(rot)=       0.00759650 Eh      4.77 kcal/mol|
|  sn= 8 | S(rot)=       0.00747042 Eh      4.69 kcal/mol|
|  sn= 9 | S(rot)=       0.00735921 Eh      4.62 kcal/mol|
|  sn=10 | S(rot)=       0.00725973 Eh      4.56 kcal/mol|
|  sn=11 | S(rot)=       0.00716974 Eh      4.50 kcal/mol|
|  sn=12 | S(rot)=       0.00708759 Eh      4.45 kcal/mol|
 --------------------------------------------------------


-------------------
GIBBS FREE ENERGY
-------------------

The Gibbs free energy is G = H - T*S

Total enthalpy                    ...    -79.66852425 Eh 
Total entropy correction          ...     -0.02517137 Eh    -15.80 kcal/mol
-----------------------------------------------------------------------
Final Gibbs free energy         ...    -79.69369562 Eh

For completeness - the Gibbs free energy minus the electronic energy
G-E(el)                           ...      0.05297785 Eh     33.24 kcal/mol



Timings for individual modules:

Sum of individual times         ...      211.715 sec (=   3.529 min)
GTO integral calculation        ...        4.767 sec (=   0.079 min)   2.3 %
SCF iterations                  ...       10.107 sec (=   0.168 min)   4.8 %
EPR/NMR calculation             ...        2.988 sec (=   0.050 min)   1.4 %
SCF Gradient evaluation         ...        5.045 sec (=   0.084 min)   2.4 %
Numerical frequency calculation ...      188.808 sec (=   3.147 min)  89.2 %
                             ****ORCA TERMINATED NORMALLY****
TOTAL RUN TIME: 0 days 0 hours 3 minutes 23 seconds 24 msec
