
                                 *****************
                                 * O   R   C   A *
                                 *****************

                                            #,                                       
                                            ###                                      
                                            ####                                     
                                            #####                                    
                                            ######                                   
                                           ########,                                 
                                     ,,################,,,,,                         
                               ,,#################################,,                 
                          ,,##########################################,,             
                       ,#########################################, ''#####,          
                    ,#############################################,,   '####,        
                  ,##################################################,,,,####,       
                ,###########''''           ''''###############################       
              ,#####''   ,,,,##########,,,,          '''####'''          '####       
            ,##' ,,,,###########################,,,                        '##       
           ' ,,###''''                  '''############,,,                           
         ,,##''                                '''############,,,,        ,,,,,,###''
      ,#''                                            '''#######################'''  
     '                                                          ''''####''''         
             ,#######,   #######,   ,#######,      ##                                
            ,#'     '#,  ##    ##  ,#'     '#,    #''#        ######   ,####,        
            ##       ##  ##   ,#'  ##            #'  '#       #        #'  '#        
            ##       ##  #######   ##           ,######,      #####,   #    #        
            '#,     ,#'  ##    ##  '#,     ,#' ,#      #,         ##   #,  ,#        
             '#######'   ##     ##  '#######'  #'      '#     #####' # '####'        



                  #######################################################
                  #                        -***-                        #
                  #          Department of theory and spectroscopy      #
                  #    Directorship and core code : Frank Neese         #
                  #        Max Planck Institute fuer Kohlenforschung    #
                  #                Kaiser Wilhelm Platz 1               #
                  #                 D-45470 Muelheim/Ruhr               #
                  #                      Germany                        #
                  #                                                     #
                  #                  All rights reserved                #
                  #                        -***-                        #
                  #######################################################


                         Program Version 5.0.3 -  RELEASE  -


 With contributions from (in alphabetic order):
   Daniel Aravena         : Magnetic Suceptibility
   Michael Atanasov       : Ab Initio Ligand Field Theory (pilot matlab implementation)
   Alexander A. Auer      : GIAO ZORA, VPT2 properties, NMR spectrum
   Ute Becker             : Parallelization
   Giovanni Bistoni       : ED, misc. LED, open-shell LED, HFLD
   Martin Brehm           : Molecular dynamics
   Dmytro Bykov           : SCF Hessian
   Vijay G. Chilkuri      : MRCI spin determinant printing, contributions to CSF-ICE
   Dipayan Datta          : RHF DLPNO-CCSD density
   Achintya Kumar Dutta   : EOM-CC, STEOM-CC
   Dmitry Ganyushin       : Spin-Orbit,Spin-Spin,Magnetic field MRCI
   Miquel Garcia          : C-PCM and meta-GGA Hessian, CC/C-PCM, Gaussian charge scheme
   Yang Guo               : DLPNO-NEVPT2, F12-NEVPT2, CIM, IAO-localization
   Andreas Hansen         : Spin unrestricted coupled pair/coupled cluster methods
   Benjamin Helmich-Paris : MC-RPA, TRAH-SCF, COSX integrals
   Lee Huntington         : MR-EOM, pCC
   Robert Izsak           : Overlap fitted RIJCOSX, COSX-SCS-MP3, EOM
   Marcus Kettner         : VPT2
   Christian Kollmar      : KDIIS, OOCD, Brueckner-CCSD(T), CCSD density, CASPT2, CASPT2-K
   Simone Kossmann        : Meta GGA functionals, TD-DFT gradient, OOMP2, MP2 Hessian
   Martin Krupicka        : Initial AUTO-CI
   Lucas Lang             : DCDCAS
   Marvin Lechner         : AUTO-CI (C++ implementation), FIC-MRCC
   Dagmar Lenk            : GEPOL surface, SMD
   Dimitrios Liakos       : Extrapolation schemes; Compound Job, initial MDCI parallelization
   Dimitrios Manganas     : Further ROCIS development; embedding schemes
   Dimitrios Pantazis     : SARC Basis sets
   Anastasios Papadopoulos: AUTO-CI, single reference methods and gradients
   Taras Petrenko         : DFT Hessian,TD-DFT gradient, ASA, ECA, R-Raman, ABS, FL, XAS/XES, NRVS
   Peter Pinski           : DLPNO-MP2, DLPNO-MP2 Gradient
   Christoph Reimann      : Effective Core Potentials
   Marius Retegan         : Local ZFS, SOC
   Christoph Riplinger    : Optimizer, TS searches, QM/MM, DLPNO-CCSD(T), (RO)-DLPNO pert. Triples
   Tobias Risthaus        : Range-separated hybrids, TD-DFT gradient, RPA, STAB
   Michael Roemelt        : Original ROCIS implementation
   Masaaki Saitow         : Open-shell DLPNO-CCSD energy and density
   Barbara Sandhoefer     : DKH picture change effects
   Avijit Sen             : IP-ROCIS
   Kantharuban Sivalingam : CASSCF convergence, NEVPT2, FIC-MRCI
   Bernardo de Souza      : ESD, SOC TD-DFT
   Georgi Stoychev        : AutoAux, RI-MP2 NMR, DLPNO-MP2 response
   Willem Van den Heuvel  : Paramagnetic NMR
   Boris Wezisla          : Elementary symmetry handling
   Frank Wennmohs         : Technical directorship


 We gratefully acknowledge several colleagues who have allowed us to
 interface, adapt or use parts of their codes:
   Stefan Grimme, W. Hujo, H. Kruse, P. Pracht,  : VdW corrections, initial TS optimization,
                  C. Bannwarth, S. Ehlert          DFT functionals, gCP, sTDA/sTD-DF
   Ed Valeev, F. Pavosevic, A. Kumar             : LibInt (2-el integral package), F12 methods
   Garnet Chan, S. Sharma, J. Yang, R. Olivares  : DMRG
   Ulf Ekstrom                                   : XCFun DFT Library
   Mihaly Kallay                                 : mrcc  (arbitrary order and MRCC methods)
   Jiri Pittner, Ondrej Demel                    : Mk-CCSD
   Frank Weinhold                                : gennbo (NPA and NBO analysis)
   Christopher J. Cramer and Donald G. Truhlar   : smd solvation model
   Lars Goerigk                                  : TD-DFT with DH, B97 family of functionals
   V. Asgeirsson, H. Jonsson                     : NEB implementation
   FAccTs GmbH                                   : IRC, NEB, NEB-TS, DLPNO-Multilevel, CI-OPT
                                                   MM, QMMM, 2- and 3-layer-ONIOM, Crystal-QMMM,
                                                   LR-CPCM, SF, NACMEs, symmetry and pop. for TD-DFT,
                                                   nearIR, NL-DFT gradient (VV10), updates on ESD,
                                                   ML-optimized integration grids
   S Lehtola, MJT Oliveira, MAL Marques          : LibXC Library
   Liviu Ungur et al                             : ANISO software


 Your calculation uses the libint2 library for the computation of 2-el integrals
 For citations please refer to: http://libint.valeyev.net

 Your ORCA version has been built with support for libXC version: 5.1.0
 For citations please refer to: https://tddft.org/programs/libxc/

 This ORCA versions uses:
   CBLAS   interface :  Fast vector & matrix operations
   LAPACKE interface :  Fast linear algebra routines
   Shared memory     :  Shared parallel matrices


SCAN-COORDS
================================================================================

----- Orbital basis set information -----
Your calculation utilizes the basis: def2-SVP
   F. Weigend and R. Ahlrichs, Phys. Chem. Chem. Phys. 7, 3297 (2005).

----- AuxJ basis set information -----
Your calculation utilizes the auxiliary basis: def2/J
   F. Weigend, Phys. Chem. Chem. Phys. 8, 1057 (2006).

================================================================================
                                        WARNINGS
                       Please study these warnings very carefully!
================================================================================


WARNING: your system is open-shell and RHF/RKS was chosen
  ===> : WILL SWITCH to UHF/UKS


WARNING: The environment variable RSH_COMMAND is not set!
  ===> : All Displacements for the Numerical Hessian or Gradient calculation
         will be started on localhost

WARNING: Geometry Optimization
  ===> : Switching off AutoStart
         For restart on a previous wavefunction, please use MOREAD

INFO   : the flag for use of the SHARK integral package has been found!

================================================================================
                                       INPUT FILE
================================================================================
NAME = TiOOH_COMPLETE.inp
|  1> ! PAL5 VWN
|  2> %method
|  3>         method DFT
|  4>         runtyp OPT
|  5> end
|  6> 
|  7> %scf                  
|  8>        MaxIter 500
|  9> end
| 10> %geom                  
| 11>        MaxIter 500
| 12>        Convergence loose                                                  
| 13> end
| 14> 
| 15> %basis
| 16>         basis "def2-SVP"
| 17> end
| 18> ! NumFreq
| 19> %elprop
| 20>         Polar 1
| 21> end
| 22> %output
| 23>         XYZFile true
| 24> end
| 25> %coords
| 26>         CTyp xyz
| 27>         Charge 0
| 28>         Mult 2
| 29>         Units Angs
| 30>         coords
| 31> 	Ti    -1.671960    2.457770   -0.000000
| 32> 	O     -3.066310    1.598560   -0.000001
| 33> 	O     -0.110402    3.419370    0.000000
| 34> 	H      0.603334    2.732930    0.000000
| 35>         end
| 36> endd                         ****END OF INPUT****
================================================================================

                       *****************************
                       * Geometry Optimization Run *
                       *****************************

Geometry optimization settings:
Update method            Update   .... BFGS
Choice of coordinates    CoordSys .... Z-matrix Internals
Initial Hessian          InHess   .... Almoef's Model

Convergence Tolerances:
Energy Change            TolE     ....  3.0000e-05 Eh
Max. Gradient            TolMAXG  ....  2.0000e-03 Eh/bohr
RMS Gradient             TolRMSG  ....  5.0000e-04 Eh/bohr
Max. Displacement        TolMAXD  ....  1.0000e-02 bohr
RMS Displacement         TolRMSD  ....  7.0000e-03 bohr
Strict Convergence                ....  False
------------------------------------------------------------------------------
                        ORCA OPTIMIZATION COORDINATE SETUP
------------------------------------------------------------------------------

The optimization will be done in new redundant internal coordinates
Making redundant internal coordinates   ...  (new redundants) done
Evaluating the initial hessian          ...  (Almloef) done
Evaluating the coordinates              ...  done
Calculating the B-matrix                .... done
Calculating the G-matrix                .... done
Diagonalizing the G-matrix              .... done
The first mode is                       ....    0
The number of degrees of freedom        ....    6

    -----------------------------------------------------------------
                    Redundant Internal Coordinates


    -----------------------------------------------------------------
         Definition                    Initial Value    Approx d2E/dq
    -----------------------------------------------------------------
      1. B(O   1,Ti  0)                  1.6378         2.278345   
      2. B(O   2,Ti  0)                  1.8339         1.108686   
      3. B(H   3,O   2)                  0.9903         0.465249   
      4. L(O   1,Ti  0,O   2,H   3, 2) 179.9999         0.785620   
      5. L(O   1,Ti  0,O   2,H   3, 1) 179.9828         0.785620   
      6. A(Ti  0,O   2,H   3)          104.4923         0.450987   
    -----------------------------------------------------------------

Number of atoms                         .... 4
Number of degrees of freedom            .... 6

         *************************************************************
         *                GEOMETRY OPTIMIZATION CYCLE   1            *
         *************************************************************
---------------------------------
CARTESIAN COORDINATES (ANGSTROEM)
---------------------------------
  Ti    -1.671960    2.457770   -0.000000
  O     -3.066310    1.598560   -0.000001
  O     -0.110402    3.419370    0.000000
  H      0.603334    2.732930    0.000000

----------------------------
CARTESIAN COORDINATES (A.U.)
----------------------------
  NO LB      ZA    FRAG     MASS         X           Y           Z
   0 Ti   22.0000    0    47.900   -3.159547    4.644512   -0.000000
   1 O     8.0000    0    15.999   -5.794486    3.020841   -0.000002
   2 O     8.0000    0    15.999   -0.208630    6.461673    0.000000
   3 H     1.0000    0     1.008    1.140136    5.164489    0.000000

--------------------------------
INTERNAL COORDINATES (ANGSTROEM)
--------------------------------
 Ti     0   0   0     0.000000000000     0.00000000     0.00000000
 O      1   0   0     1.637819815059     0.00000000     0.00000000
 O      1   2   0     1.833886023548   179.98284525     0.00000000
 H      3   1   2     0.990262061929   104.49225786   359.88315907

---------------------------
INTERNAL COORDINATES (A.U.)
---------------------------
 Ti     0   0   0     0.000000000000     0.00000000     0.00000000
 O      1   0   0     3.095030907172     0.00000000     0.00000000
 O      1   2   0     3.465542345331   179.98284525     0.00000000
 H      3   1   2     1.871324097858   104.49225786   359.88315907

---------------------
BASIS SET INFORMATION
---------------------
There are 3 groups of distinct atoms

 Group   1 Type Ti  : 14s9p5d1f contracted to 5s3p2d1f pattern {63311/531/41/1}
 Group   2 Type O   : 7s4p1d contracted to 3s2p1d pattern {511/31/1}
 Group   3 Type H   : 4s1p contracted to 2s1p pattern {31/1}

Atom   0Ti   basis set group =>   1
Atom   1O    basis set group =>   2
Atom   2O    basis set group =>   2
Atom   3H    basis set group =>   3
---------------------------------
AUXILIARY/J BASIS SET INFORMATION
---------------------------------
There are 3 groups of distinct atoms

 Group   1 Type Ti  : 19s5p5d3f3g contracted to 8s5p5d2f3g pattern {121111111/11111/11111/21/111}
 Group   2 Type O   : 12s5p4d2f1g contracted to 6s4p3d1f1g pattern {711111/2111/211/2/1}
 Group   3 Type H   : 5s2p1d contracted to 3s1p1d pattern {311/2/1}

Atom   0Ti   basis set group =>   1
Atom   1O    basis set group =>   2
Atom   2O    basis set group =>   2
Atom   3H    basis set group =>   3


           ************************************************************
           *        Program running with 5 parallel MPI-processes     *
           *              working on a common directory               *
           ************************************************************
------------------------------------------------------------------------------
                           ORCA GTO INTEGRAL CALCULATION
                           -- RI-GTO INTEGRALS CHOSEN --
------------------------------------------------------------------------------
------------------------------------------------------------------------------
                   ___                                                        
                  /   \      - P O W E R E D   B Y -                         
                 /     \                                                     
                 |  |  |   _    _      __       _____    __    __             
                 |  |  |  | |  | |    /  \     |  _  \  |  |  /  |          
                  \  \/   | |  | |   /    \    | | | |  |  | /  /          
                 / \  \   | |__| |  /  /\  \   | |_| |  |  |/  /          
                |  |  |   |  __  | /  /__\  \  |    /   |      \           
                |  |  |   | |  | | |   __   |  |    \   |  |\   \          
                \     /   | |  | | |  |  |  |  | |\  \  |  | \   \       
                 \___/    |_|  |_| |__|  |__|  |_| \__\ |__|  \__/        
                                                                              
                      - O R C A' S   B I G   F R I E N D -                    
                                      &                                       
                       - I N T E G R A L  F E E D E R -                       
                                                                              
 v1 FN, 2020, v2 2021                                                         
------------------------------------------------------------------------------


Reading SHARK input file TiOOH_COMPLETE.SHARKINP.tmp ... ok
----------------------
SHARK INTEGRAL PACKAGE
----------------------

Number of atoms                             ...      4
Number of basis functions                   ...     64
Number of shells                            ...     26
Maximum angular momentum                    ...      3
Integral batch strategy                     ... SHARK/LIBINT Hybrid
RI-J (if used) integral strategy            ... SPLIT-RIJ (Revised 2003 algorithm where possible)
Printlevel                                  ...      1
Contraction scheme used                     ... SEGMENTED contraction
Coulomb Range Separation                    ... NOT USED
Exchange Range Separation                   ... NOT USED
Finite Nucleus Model                        ... NOT USED
Auxiliary Coulomb fitting basis             ... AVAILABLE
   # of basis functions in Aux-J            ...    198
   # of shells in Aux-J                     ...     58
   Maximum angular momentum in Aux-J        ...      4
Auxiliary J/K fitting basis                 ... NOT available
Auxiliary Correlation fitting basis         ... NOT available
Auxiliary 'external' fitting basis          ... NOT available
Integral threshold                          ...     2.500000e-11
Primitive cut-off                           ...     2.500000e-12
Primitive pair pre-selection threshold      ...     2.500000e-12

Calculating pre-screening integrals         ... done (  0.0 sec) Dimension = 26
Organizing shell pair data                  ... done (  0.0 sec)
Shell pair information
Total number of shell pairs                 ...       351
Shell pairs after pre-screening             ...       338
Total number of primitive shell pairs       ...      1780
Primitive shell pairs kept                  ...      1404
          la=0 lb=0:     85 shell pairs
          la=1 lb=0:     99 shell pairs
          la=1 lb=1:     36 shell pairs
          la=2 lb=0:     50 shell pairs
          la=2 lb=1:     32 shell pairs
          la=2 lb=2:     10 shell pairs
          la=3 lb=0:     13 shell pairs
          la=3 lb=1:      8 shell pairs
          la=3 lb=2:      4 shell pairs
          la=3 lb=3:      1 shell pairs

Calculating one electron integrals          ... done (  0.0 sec)
Calculating RI/J V-Matrix + Cholesky decomp.... done (  0.0 sec)
Calculating Nuclear repulsion               ... done (  0.0 sec) ENN=    127.863159354412 Eh

SHARK setup successfully completed in   0.1 seconds

Maximum memory used throughout the entire GTOINT-calculation: 14.1 MB


           ************************************************************
           *        Program running with 5 parallel MPI-processes     *
           *              working on a common directory               *
           ************************************************************
-------------------------------------------------------------------------------
                                 ORCA SCF
-------------------------------------------------------------------------------

------------
SCF SETTINGS
------------
Hamiltonian:
 Density Functional     Method          .... DFT(GTOs)
 Exchange Functional    Exchange        .... Slater
   X-Alpha parameter    XAlpha          ....  0.666667
 Correlation Functional Correlation     .... VWN-5
 Gradients option       PostSCFGGA      .... off
   Density functional embedding theory  .... OFF
 RI-approximation to the Coulomb term is turned on
   Number of AuxJ basis functions       .... 198


General Settings:
 Integral files         IntName         .... TiOOH_COMPLETE
 Hartree-Fock type      HFTyp           .... UHF
 Total Charge           Charge          ....    0
 Multiplicity           Mult            ....    2
 Number of Electrons    NEL             ....   39
 Basis Dimension        Dim             ....   64
 Nuclear Repulsion      ENuc            ....    127.8631593544 Eh

Convergence Acceleration:
 DIIS                   CNVDIIS         .... on
   Start iteration      DIISMaxIt       ....    12
   Startup error        DIISStart       ....  0.200000
   # of expansion vecs  DIISMaxEq       ....     5
   Bias factor          DIISBfac        ....   1.050
   Max. coefficient     DIISMaxC        ....  10.000
 Trust-Rad. Augm. Hess. CNVTRAH         .... auto
   Auto Start mean grad. ratio tolernc. ....  1.125000
   Auto Start start iteration           ....    20
   Auto Start num. interpolation iter.  ....    10
   Max. Number of Micro iterations      ....    16
   Max. Number of Macro iterations      .... Maxiter - #DIIS iter
   Number of Davidson start vectors     ....     2
   Converg. threshold I  (grad. norm)   ....   1.000e-05
   Converg. threshold II (energy diff.) ....   1.000e-08
   Grad. Scal. Fac. for Micro threshold ....   0.100
   Minimum threshold for Micro iter.    ....   0.010
   NR start threshold (gradient norm)   ....   0.001
   Initial trust radius                 ....   0.400
   Minimum AH scaling param. (alpha)    ....   1.000
   Maximum AH scaling param. (alpha)    .... 1000.000
   Orbital update algorithm             .... Taylor
   White noise on init. David. guess    .... on
   Maximum white noise                  ....   0.010
   Quad. conv. algorithm                .... NR
 SOSCF                  CNVSOSCF        .... off
 Level Shifting         CNVShift        .... on
   Level shift para.    LevelShift      ....    0.2500
   Turn off err/grad.   ShiftErr        ....    0.0010
 Zerner damping         CNVZerner       .... off
 Static damping         CNVDamp         .... on
   Fraction old density DampFac         ....    0.7000
   Max. Damping (<1)    DampMax         ....    0.9800
   Min. Damping (>=0)   DampMin         ....    0.0000
   Turn off err/grad.   DampErr         ....    0.1000
 Fernandez-Rico         CNVRico         .... off

SCF Procedure:
 Maximum # iterations   MaxIter         ....   500
 SCF integral mode      SCFMode         .... Direct
   Integral package                     .... SHARK and LIBINT hybrid scheme
 Reset frequency        DirectResetFreq ....    20
 Integral Threshold     Thresh          ....  2.500e-11 Eh
 Primitive CutOff       TCut            ....  2.500e-12 Eh

Convergence Tolerance:
 Convergence Check Mode ConvCheckMode   .... Total+1el-Energy
 Convergence forced     ConvForced      .... 0
 Energy Change          TolE            ....  1.000e-08 Eh
 1-El. energy change                    ....  1.000e-05 Eh
 DIIS Error             TolErr          ....  5.000e-07


Diagonalization of the overlap matrix:
Smallest eigenvalue                        ... 1.346e-02
Time for diagonalization                   ...    0.001 sec
Threshold for overlap eigenvalues          ... 1.000e-08
Number of eigenvalues below threshold      ... 0
Time for construction of square roots      ...    0.004 sec
Total time needed                          ...    0.005 sec

Time for model grid setup =    0.028 sec

------------------------------
INITIAL GUESS: MODEL POTENTIAL
------------------------------
Loading Hartree-Fock densities                     ... done
Calculating cut-offs                               ... done
Initializing the effective Hamiltonian             ... done
Setting up the integral package (SHARK)            ... done
Starting the Coulomb interaction                   ... done (   0.0 sec)
Reading the grid                                   ... done
Mapping shells                                     ... done
Starting the XC term evaluation                    ... done (   0.0 sec)
  promolecular density results
     # of electrons  =     39.000657124
     EX              =    -53.187288159
     EC              =     -2.953321740
     EX+EC           =    -56.140609899
Transforming the Hamiltonian                       ... done (   0.0 sec)
Diagonalizing the Hamiltonian                      ... done (   0.0 sec)
Back transforming the eigenvectors                 ... done (   0.0 sec)
Now organizing SCF variables                       ... done
                      ------------------
                      INITIAL GUESS DONE (   0.0 sec)
                      ------------------
-------------------
DFT GRID GENERATION
-------------------

General Integration Accuracy     IntAcc      ... 4.388
Radial Grid Type                 RadialGrid  ... OptM3 with GC (2021)
Angular Grid (max. ang.)         AngularGrid ... 4 (Lebedev-302)
Angular grid pruning method      GridPruning ... 4 (adaptive)
Weight generation scheme         WeightScheme... Becke
Basis function cutoff            BFCut       ... 1.0000e-11
Integration weight cutoff        WCut        ... 1.0000e-14
Angular grids for H and He will be reduced by one unit
Partially contracted basis set               ... off
Rotationally invariant grid construction     ... off

Total number of grid points                  ...    26834
Total number of batches                      ...      421
Average number of points per batch           ...       63
Average number of grid points per atom       ...     6709
Time for grid setup =    0.110 sec

--------------
SCF ITERATIONS
--------------
ITER       Energy         Delta-E        Max-DP      RMS-DP      [F,P]     Damp
               ***  Starting incremental Fock matrix formation  ***
  0   -996.6659017308   0.000000000000 0.21911550  0.00896205  0.2204571 0.7000
  1   -996.3645097115   0.301392019275 0.08441929  0.00385316  0.1822918 0.7000
                               ***Turning on DIIS***
  2   -996.8036407048  -0.439130993285 0.19505896  0.00820351  0.0510954 0.0000
  3   -996.6229435578   0.180697147040 0.01371813  0.00074075  0.2126411 0.7000
  4   -996.7090435072  -0.086099949456 0.01427008  0.00082338  0.1976064 0.7000
  5   -996.7963404178  -0.087296910579 0.01623067  0.00074235  0.1796207 0.7000
  6   -996.8653128487  -0.068972430873 0.02088455  0.00070883  0.1639378 0.7000
  7   -996.9162847748  -0.050971926058 0.04543864  0.00216283  0.1550238 0.7000
  8   -997.0536735292  -0.137388754395 0.04384108  0.00152393  0.1120595 0.7000
  9   -997.1200589110  -0.066385381869 0.14118128  0.00340760  0.0665890 0.0000
 10   -997.1888440326  -0.068785121543 0.01854230  0.00052912  0.0043057 0.0000
 11   -997.1897187067  -0.000874674159 0.02285276  0.00047302  0.0050739 0.0000
 12   -997.1906352790  -0.000916572325 0.02584489  0.00052155  0.0057329 0.0000
 13   -997.1916989163  -0.001063637286 0.02858375  0.00060909  0.0061573 0.0000
 14   -997.1928579269  -0.001159010535 0.02955905  0.00068434  0.0061696 0.0000
 15   -997.1941046619  -0.001246735027 0.03136443  0.00076298  0.0099907 0.0000
 16   -997.1953342737  -0.001229611808 0.03736235  0.00082875  0.0137433 0.0000
 17   -997.1963826152  -0.001048341470 0.04159803  0.00087200  0.0186333 0.0000
 18   -997.1972701626  -0.000887547439 0.04463133  0.00090234  0.0223838 0.0000
 19   -997.1976274989  -0.000357336329 0.04507218  0.00089559  0.0269463 0.0000
               *** Restarting incremental Fock matrix formation ***
                                   *** Resetting DIIS ***

 WARNING: the maximum gradient error descreased on average only by a factor   0.8
          during the last 20 iterations

                      *** Initiating the TRAH-SCF procedure ***


TRAH GRID
---------

General Integration Accuracy     IntAcc      ... 3.467
Radial Grid Type                 RadialGrid  ... OptM3 with GC (2021)
Angular Grid (max. ang.)         AngularGrid ... 1 (Lebedev-50)
Angular grid pruning method      GridPruning ... 4 (adaptive)
Weight generation scheme         WeightScheme... Becke
Basis function cutoff            BFCut       ... 1.0000e-11
Integration weight cutoff        WCut        ... 1.0000e-14
Angular grids for H and He will be reduced by one unit
Partially contracted basis set               ... off
Rotationally invariant grid construction     ... off

Total number of grid points                  ...     6677
Total number of batches                      ...      107
Average number of points per batch           ...       62
Average number of grid points per atom       ...     1669

 --------------------------------------------------------------------------------------------
   Iter.        energy            ||Error||_2        Shift      TRadius  Mac/Mic        Rej.
 --------------------------------------------------------------------------------------------
    0       -997.198238770263     1.018092e-01                     0.400 (TRAH MAcro)   No
WARNING : small    HOMO - LUMO gap : (op = alpha) 0.004626
    0     dE    -4.174192e-03     1.062626e-01    -4.1670e-03      0.042 (TRAH MIcro)
    0     dE    -7.768960e-03     9.985108e-02    -7.0655e-03      0.316 (TRAH MIcro)
    0     dE    -9.284515e-03     3.253382e-02    -8.3479e-03      0.335 (TRAH MIcro)
    0     dE    -9.517260e-03     8.759710e-03    -8.5669e-03      0.333 (TRAH MIcro)
    1       -997.207479728892     1.137801e-02                     0.480 (TRAH MAcro)   No
WARNING : small    HOMO - LUMO gap : (op = alpha) 0.010999
    1     dE    -2.750610e-05     4.609764e-02    -2.7506e-05      0.003 (TRAH MIcro)
    1     dE    -1.243306e-04     2.967245e-02    -1.2413e-04      0.040 (TRAH MIcro)
    1     dE    -2.536442e-04     1.373991e-02    -2.5198e-04      0.081 (TRAH MIcro)
    1     dE    -2.957375e-04     2.700347e-03    -2.9350e-04      0.087 (TRAH MIcro)
    1     dE    -2.996596e-04     1.757629e-03    -2.9732e-04      0.089 (TRAH MIcro)
    1     dE    -3.016920e-04     1.382707e-03    -2.9932e-04      0.089 (TRAH MIcro)
    1     dE    -3.019251e-04     2.746825e-04    -2.9954e-04      0.089 (TRAH MIcro)
    2       -997.207789523927     8.388953e-04                           (NR   MAcro)
WARNING : small    HOMO - LUMO gap : (op = alpha) 0.009300
    2     dE    -1.431791e-06     1.074921e-03                           (NR   MIcro)
    2     dE    -2.081055e-06     7.750208e-04                           (NR   MIcro)
    2     dE    -2.543677e-06     4.509317e-04                           (NR   MIcro)
    2     dE    -2.627707e-06     1.555103e-04                           (NR   MIcro)
    2     dE    -2.639777e-06     2.788076e-05                           (NR   MIcro)
    2     dE    -2.640548e-06     9.551242e-06                           (NR   MIcro)
    2     dE    -2.640616e-06     3.148849e-06                           (NR   MIcro)
    3       -997.207792207441     2.499284e-05                           (NR   MAcro)
WARNING : small    HOMO - LUMO gap : (op = alpha) 0.008984
    3     dE    -1.026731e-09     2.173393e-05                           (NR   MIcro)
    3     dE    -1.507316e-09     1.967906e-05                           (NR   MIcro)
    3     dE    -1.799000e-09     1.024434e-05                           (NR   MIcro)
    3     dE    -1.841489e-09     3.802251e-06                           (NR   MIcro)
    3     dE    -1.849102e-09     9.149795e-07                           (NR   MIcro)
    4       -997.207792209294     9.063477e-07                           (NR   MAcro)
WARNING : small    HOMO - LUMO gap : (op = alpha) 0.008973

               *****************************************************
               *                     SUCCESS                       *
               *           SCF CONVERGED AFTER  48 CYCLES          *
               *****************************************************


----------------
TOTAL SCF ENERGY
----------------

Total Energy       :         -997.20779221 Eh          -27135.40356 eV

Components:
Nuclear Repulsion  :          127.86315935 Eh            3479.33345 eV
Electronic Energy  :        -1125.07095156 Eh          -30614.73702 eV
One Electron Energy:        -1628.24300776 Eh          -44306.74475 eV
Two Electron Energy:          503.17205620 Eh           13692.00774 eV

Virial components:
Potential Energy   :        -1995.11733628 Eh          -54289.90277 eV
Kinetic Energy     :          997.90954408 Eh           27154.49920 eV
Virial Ratio       :            1.99929678


DFT components:
N(Alpha)           :       19.999832134805 electrons
N(Beta)            :       18.999877980972 electrons
N(Total)           :       38.999710115777 electrons
E(X)               :      -53.625901342495 Eh       
E(C)               :       -2.982048949060 Eh       
E(XC)              :      -56.607950291555 Eh       
DFET-embed. en.    :        0.000000000000 Eh       

---------------
SCF CONVERGENCE
---------------

  Last Energy change         ...   -1.8537e-09  Tolerance :   1.0000e-08
  Last Orbital Gradient      ...    9.0635e-07  Tolerance :   1.0000e-05
  Last Orbital Rotation      ...    2.8444e-04

             **** THE GBW FILE WAS UPDATED (TiOOH_COMPLETE.gbw) ****
             **** DENSITY TiOOH_COMPLETE.scfp WAS UPDATED ****
             **** ENERGY FILE WAS UPDATED (TiOOH_COMPLETE.en.tmp) ****
----------------------
UHF SPIN CONTAMINATION
----------------------

Warning: in a DFT calculation there is little theoretical justification to 
         calculate <S**2> as in Hartree-Fock theory. We will do it anyways
         but you should keep in mind that the values have only limited relevance

Expectation value of <S**2>     :     0.756529
Ideal value S*(S+1) for S=0.5   :     0.750000
Deviation                       :     0.006529

             **** THE GBW FILE WAS UPDATED (TiOOH_COMPLETE.gbw) ****
             **** DENSITY TiOOH_COMPLETE.scfp WAS UPDATED ****
----------------
ORBITAL ENERGIES
----------------
                 SPIN UP ORBITALS
  NO   OCC          E(Eh)            E(eV) 
   0   1.0000    -177.139198     -4820.2026 
   1   1.0000     -19.368220      -527.0361 
   2   1.0000     -18.573969      -505.4234 
   3   1.0000     -18.545675      -504.6535 
   4   1.0000     -16.202294      -440.8868 
   5   1.0000     -16.202005      -440.8790 
   6   1.0000     -16.198880      -440.7939 
   7   1.0000      -2.195476       -59.7419 
   8   1.0000      -1.373974       -37.3877 
   9   1.0000      -1.369999       -37.2796 
  10   1.0000      -1.364386       -37.1268 
  11   1.0000      -0.831783       -22.6340 
  12   1.0000      -0.716353       -19.4929 
  13   1.0000      -0.397294       -10.8109 
  14   1.0000      -0.291857        -7.9418 
  15   1.0000      -0.279380        -7.6023 
  16   1.0000      -0.252241        -6.8638 
  17   1.0000      -0.240896        -6.5551 
  18   1.0000      -0.205092        -5.5808 
  19   1.0000      -0.132935        -3.6173 
  20   0.0000      -0.123962        -3.3732 
  21   0.0000      -0.118464        -3.2236 
  22   0.0000      -0.044994        -1.2244 
  23   0.0000      -0.034134        -0.9288 
  24   0.0000       0.012110         0.3295 
  25   0.0000       0.036443         0.9917 
  26   0.0000       0.049459         1.3459 
  27   0.0000       0.071661         1.9500 
  28   0.0000       0.198814         5.4100 
  29   0.0000       0.208972         5.6864 
  30   0.0000       0.492536        13.4026 
  31   0.0000       0.506677        13.7874 
  32   0.0000       0.549250        14.9459 
  33   0.0000       0.606467        16.5028 
  34   0.0000       0.618520        16.8308 
  35   0.0000       0.684483        18.6257 
  36   0.0000       0.895270        24.3615 
  37   0.0000       0.946415        25.7533 
  38   0.0000       0.982706        26.7408 
  39   0.0000       1.014930        27.6176 
  40   0.0000       1.046059        28.4647 
  41   0.0000       1.082070        29.4446 
  42   0.0000       1.117449        30.4073 
  43   0.0000       1.246563        33.9207 
  44   0.0000       1.331989        36.2453 
  45   0.0000       1.337219        36.3876 
  46   0.0000       1.425714        38.7957 
  47   0.0000       1.429568        38.9005 
  48   0.0000       1.431296        38.9475 
  49   0.0000       1.445326        39.3293 
  50   0.0000       1.502086        40.8738 
  51   0.0000       1.661882        45.2221 
  52   0.0000       1.881852        51.2078 
  53   0.0000       2.103921        57.2506 
  54   0.0000       2.623634        71.3927 
  55   0.0000       2.623679        71.3939 
  56   0.0000       2.664228        72.4973 
  57   0.0000       2.709505        73.7294 
  58   0.0000       2.728615        74.2494 
  59   0.0000       2.863153        77.9104 
  60   0.0000       2.864825        77.9559 
  61   0.0000       2.962012        80.6004 
  62   0.0000       3.035200        82.5920 
  63   0.0000       3.604640        98.0872 

                 SPIN DOWN ORBITALS
  NO   OCC          E(Eh)            E(eV) 
   0   1.0000    -177.138925     -4820.1952 
   1   1.0000     -19.358982      -526.7847 
   2   1.0000     -18.574515      -505.4382 
   3   1.0000     -18.548069      -504.7186 
   4   1.0000     -16.194757      -440.6817 
   5   1.0000     -16.194164      -440.6656 
   6   1.0000     -16.192378      -440.6170 
   7   1.0000      -2.167836       -58.9898 
   8   1.0000      -1.359626       -36.9973 
   9   1.0000      -1.339061       -36.4377 
  10   1.0000      -1.327848       -36.1326 
  11   1.0000      -0.831912       -22.6375 
  12   1.0000      -0.718941       -19.5634 
  13   1.0000      -0.396012       -10.7760 
  14   1.0000      -0.289461        -7.8766 
  15   1.0000      -0.277276        -7.5451 
  16   1.0000      -0.251010        -6.8303 
  17   1.0000      -0.242127        -6.5886 
  18   1.0000      -0.205091        -5.5808 
  19   0.0000      -0.108828        -2.9614 
  20   0.0000      -0.097546        -2.6544 
  21   0.0000      -0.080779        -2.1981 
  22   0.0000      -0.027650        -0.7524 
  23   0.0000      -0.020137        -0.5480 
  24   0.0000       0.019657         0.5349 
  25   0.0000       0.051439         1.3997 
  26   0.0000       0.058224         1.5844 
  27   0.0000       0.081669         2.2223 
  28   0.0000       0.207527         5.6471 
  29   0.0000       0.218686         5.9507 
  30   0.0000       0.522732        14.2243 
  31   0.0000       0.524549        14.2737 
  32   0.0000       0.560226        15.2445 
  33   0.0000       0.616004        16.7623 
  34   0.0000       0.630543        17.1580 
  35   0.0000       0.695894        18.9362 
  36   0.0000       0.897489        24.4219 
  37   0.0000       0.946445        25.7541 
  38   0.0000       0.983358        26.7585 
  39   0.0000       1.013373        27.5753 
  40   0.0000       1.047501        28.5040 
  41   0.0000       1.086564        29.5669 
  42   0.0000       1.121452        30.5163 
  43   0.0000       1.250773        34.0353 
  44   0.0000       1.341568        36.5059 
  45   0.0000       1.344327        36.5810 
  46   0.0000       1.444062        39.2949 
  47   0.0000       1.464503        39.8512 
  48   0.0000       1.465569        39.8802 
  49   0.0000       1.476820        40.1863 
  50   0.0000       1.510456        41.1016 
  51   0.0000       1.673267        45.5319 
  52   0.0000       1.894116        51.5415 
  53   0.0000       2.105207        57.2856 
  54   0.0000       2.619181        71.2715 
  55   0.0000       2.619816        71.2888 
  56   0.0000       2.661725        72.4292 
  57   0.0000       2.708555        73.7035 
  58   0.0000       2.728742        74.2528 
  59   0.0000       2.862806        77.9009 
  60   0.0000       2.864015        77.9338 
  61   0.0000       2.961802        80.5947 
  62   0.0000       3.037388        82.6515 
  63   0.0000       3.604588        98.0858 

                    ********************************
                    * MULLIKEN POPULATION ANALYSIS *
                    ********************************

--------------------------------------------
MULLIKEN ATOMIC CHARGES AND SPIN POPULATIONS
--------------------------------------------
   0 Ti:    0.782551    1.108567
   1 O :   -0.467281   -0.092283
   2 O :   -0.505425   -0.023138
   3 H :    0.190155    0.006854
Sum of atomic charges         :   -0.0000000
Sum of atomic spin populations:    1.0000000

-----------------------------------------------------
MULLIKEN REDUCED ORBITAL CHARGES AND SPIN POPULATIONS
-----------------------------------------------------
CHARGE
  0 Tis       :     6.221854  s :     6.221854
      pz      :     4.179886  p :    12.419521
      px      :     4.117665
      py      :     4.121969
      dz2     :     0.646197  d :     2.530328
      dxz     :     0.424502
      dyz     :     0.153044
      dx2y2   :     0.572251
      dxy     :     0.734334
      f0      :     0.004992  f :     0.045746
      f+1     :     0.005755
      f-1     :     0.002543
      f+2     :     0.001844
      f-2     :     0.006617
      f+3     :     0.011515
      f-3     :     0.012481
  1 O s       :     3.902985  s :     3.902985
      pz      :     1.501317  p :     4.556242
      px      :     1.539080
      py      :     1.515845
      dz2     :     0.000919  d :     0.008054
      dxz     :     0.001619
      dyz     :     0.000612
      dx2y2   :     0.002291
      dxy     :     0.002614
  2 O s       :     3.786525  s :     3.786525
      pz      :     1.706812  p :     4.710994
      px      :     1.464854
      py      :     1.539328
      dz2     :     0.001327  d :     0.007907
      dxz     :     0.000152
      dyz     :     0.001135
      dx2y2   :     0.001487
      dxy     :     0.003805
  3 H s       :     0.743827  s :     0.743827
      pz      :     0.017467  p :     0.066018
      px      :     0.023542
      py      :     0.025009

SPIN
  0 Tis       :     0.114712  s :     0.114712
      pz      :     0.006705  p :     0.019577
      px      :     0.005951
      py      :     0.006921
      dz2     :     0.498120  d :     0.974517
      dxz     :     0.024193
      dyz     :     0.008790
      dx2y2   :     0.113603
      dxy     :     0.329810
      f0      :     0.000051  f :    -0.000238
      f+1     :     0.000037
      f-1     :     0.000022
      f+2     :    -0.000011
      f-2     :    -0.000046
      f+3     :    -0.000137
      f-3     :    -0.000154
  1 O s       :    -0.000192  s :    -0.000192
      pz      :    -0.027999  p :    -0.092464
      px      :    -0.030128
      py      :    -0.034338
      dz2     :     0.000066  d :     0.000374
      dxz     :     0.000043
      dyz     :     0.000016
      dx2y2   :     0.000099
      dxy     :     0.000150
  2 O s       :    -0.002897  s :    -0.002897
      pz      :    -0.011697  p :    -0.020380
      px      :    -0.000450
      py      :    -0.008233
      dz2     :     0.000019  d :     0.000140
      dxz     :     0.000010
      dyz     :     0.000011
      dx2y2   :     0.000044
      dxy     :     0.000057
  3 H s       :     0.006570  s :     0.006570
      pz      :    -0.000064  p :     0.000284
      px      :    -0.000078
      py      :     0.000426


                     *******************************
                     * LOEWDIN POPULATION ANALYSIS *
                     *******************************

-------------------------------------------
LOEWDIN ATOMIC CHARGES AND SPIN POPULATIONS
-------------------------------------------
   0 Ti:    0.390026    1.090282
   1 O :   -0.207904   -0.083326
   2 O :   -0.266620   -0.014878
   3 H :    0.084497    0.007922

----------------------------------------------------
LOEWDIN REDUCED ORBITAL CHARGES AND SPIN POPULATIONS
----------------------------------------------------
CHARGE
  0 Tis       :     6.212188  s :     6.212188
      pz      :     4.181211  p :    12.506465
      px      :     4.172801
      py      :     4.152453
      dz2     :     0.679578  d :     2.771468
      dxz     :     0.452403
      dyz     :     0.164071
      dx2y2   :     0.619135
      dxy     :     0.856281
      f0      :     0.010419  f :     0.119854
      f+1     :     0.018753
      f-1     :     0.008028
      f+2     :     0.003662
      f-2     :     0.013830
      f+3     :     0.022084
      f-3     :     0.043077
  1 O s       :     3.644945  s :     3.644945
      pz      :     1.470979  p :     4.546645
      px      :     1.568807
      py      :     1.506859
      dz2     :     0.002781  d :     0.016314
      dxz     :     0.001843
      dyz     :     0.000701
      dx2y2   :     0.003608
      dxy     :     0.007381
  2 O s       :     3.496296  s :     3.496296
      pz      :     1.656779  p :     4.756424
      px      :     1.526322
      py      :     1.573323
      dz2     :     0.003111  d :     0.013901
      dxz     :     0.000370
      dyz     :     0.000671
      dx2y2   :     0.001406
      dxy     :     0.008342
  3 H s       :     0.732388  s :     0.732388
      pz      :     0.043061  p :     0.183114
      px      :     0.069280
      py      :     0.070773

SPIN
  0 Tis       :     0.103941  s :     0.103941
      pz      :     0.005902  p :     0.015540
      px      :     0.003872
      py      :     0.005766
      dz2     :     0.491025  d :     0.972075
      dxz     :     0.022527
      dyz     :     0.008160
      dx2y2   :     0.113716
      dxy     :     0.336647
      f0      :    -0.000034  f :    -0.001273
      f+1     :    -0.000109
      f-1     :    -0.000058
      f+2     :    -0.000039
      f-2     :    -0.000158
      f+3     :    -0.000474
      f-3     :    -0.000402
  1 O s       :     0.000013  s :     0.000013
      pz      :    -0.025734  p :    -0.084074
      px      :    -0.027463
      py      :    -0.030876
      dz2     :     0.000061  d :     0.000735
      dxz     :     0.000080
      dyz     :     0.000030
      dx2y2   :     0.000203
      dxy     :     0.000361
  2 O s       :     0.000336  s :     0.000336
      pz      :    -0.010526  p :    -0.015572
      px      :     0.001538
      py      :    -0.006584
      dz2     :     0.000071  d :     0.000358
      dxz     :     0.000022
      dyz     :     0.000017
      dx2y2   :     0.000071
      dxy     :     0.000177
  3 H s       :     0.006406  s :     0.006406
      pz      :    -0.000246  p :     0.001516
      px      :     0.000012
      py      :     0.001750


                      *****************************
                      * MAYER POPULATION ANALYSIS *
                      *****************************

  NA   - Mulliken gross atomic population
  ZA   - Total nuclear charge
  QA   - Mulliken gross atomic charge
  VA   - Mayer's total valence
  BVA  - Mayer's bonded valence
  FA   - Mayer's free valence

  ATOM       NA         ZA         QA         VA         BVA        FA
  0 Ti    21.2174    22.0000     0.7826     4.3804     3.4183     0.9621
  1 O      8.4673     8.0000    -0.4673     2.3273     2.3243     0.0030
  2 O      8.5054     8.0000    -0.5054     2.0980     2.0978     0.0002
  3 H      0.8098     1.0000     0.1902     0.9960     0.9959     0.0001

  Mayer bond orders larger than 0.100000
B(  0-Ti,  1-O ) :   2.2507 B(  0-Ti,  2-O ) :   1.1024 B(  2-O ,  3-H ) :   0.9262 


-------
TIMINGS
-------

Total SCF time: 0 days 0 hours 0 min 3 sec 

Total time                  ....       3.123 sec
Sum of individual times     ....       2.338 sec  ( 74.9%)

Fock matrix formation       ....       1.881 sec  ( 60.2%)
  Split-RI-J                ....       0.380 sec  ( 20.2% of F)
  XC integration            ....       0.845 sec  ( 44.9% of F)
    Basis function eval.    ....       0.080 sec  (  9.5% of XC)
    Density eval.           ....       0.096 sec  ( 11.4% of XC)
    XC-Functional eval.     ....       0.046 sec  (  5.4% of XC)
    XC-Potential eval.      ....       0.085 sec  ( 10.1% of XC)
Diagonalization             ....       0.092 sec  (  2.9%)
Density matrix formation    ....       0.009 sec  (  0.3%)
Population analysis         ....       0.024 sec  (  0.8%)
Initial guess               ....       0.020 sec  (  0.6%)
Orbital Transformation      ....       0.063 sec  (  2.0%)
Orbital Orthonormalization  ....       0.000 sec  (  0.0%)
DIIS solution               ....       0.110 sec  (  3.5%)
Grid generation             ....       0.138 sec  (  4.4%)

Maximum memory used throughout the entire SCF-calculation: 9.6 MB

-------------------------   --------------------
FINAL SINGLE POINT ENERGY      -997.207792209294
-------------------------   --------------------



           ************************************************************
           *        Program running with 5 parallel MPI-processes     *
           *              working on a common directory               *
           ************************************************************
------------------------------------------------------------------------------
                         ORCA SCF GRADIENT CALCULATION
------------------------------------------------------------------------------

Gradient of the Kohn-Sham DFT energy:
Kohn-Sham wavefunction type      ... UKS
Hartree-Fock exchange scaling    ...    0.000
Number of operators              ...    2
Number of atoms                  ...    4
Basis set dimensions             ...   64
Integral neglect threshold       ... 2.5e-11
Integral primitive cutoff        ... 2.5e-12
SHARK Integral package           ... ON

Nuc. rep. gradient       (SHARK) ... done (  0.0 sec)
HCore & Overlap gradient (SHARK) ... done (  0.0 sec)
RI-J gradient            (SHARK) ... done (  0.1 sec)
Exchange-correlation gradient    ... done

------------------
CARTESIAN GRADIENT
------------------

   1   Ti  :    0.042745637    0.011589885   -0.000000042
   2   O   :   -0.001991076    0.002515992    0.000000021
   3   O   :   -0.037394806    0.000513423    0.000000024
   4   H   :   -0.003359754   -0.014619300   -0.000000002

Difference to translation invariance:
           :   -0.0000000000   -0.0000000001    0.0000000000

Difference to rotation invariance:
           :    0.0000000144   -0.0000000037   -0.0015062564

Norm of the cartesian gradient     ...    0.0599621259
RMS gradient                       ...    0.0173095748
MAX gradient                       ...    0.0427456367

-------
TIMINGS
-------

Total SCF gradient time            ...        0.166 sec

One electron gradient       ....       0.004 sec  (  2.4%)
RI-J Coulomb gradient       ....       0.083 sec  ( 50.0%)
XC gradient                 ....       0.043 sec  ( 25.9%)

Maximum memory used throughout the entire SCFGRAD-calculation: 6.9 MB
------------------------------------------------------------------------------
                         ORCA GEOMETRY RELAXATION STEP
------------------------------------------------------------------------------

Reading the OPT-File                    .... done
Getting information on internals        .... done
Copying old internal coords+grads       .... done
Making the new internal coordinates     .... (new redundants).... done
Validating the new internal coordinates .... (new redundants).... done
Calculating the B-matrix                .... done
Calculating the G,G- and P matrices     .... done
Transforming gradient to internals      .... done
Projecting the internal gradient        .... done
Number of atoms                         ....   4
Number of internal coordinates          ....   6
Current Energy                          ....  -997.207792209 Eh
Current gradient norm                   ....     0.059962126 Eh/bohr
Maximum allowed component of the step   ....  0.300
Current trust radius                    ....  0.300
Evaluating the initial hessian          ....  (Almloef) done
Projecting the Hessian                  .... done
Forming the augmented Hessian           .... done
Diagonalizing the augmented Hessian     .... done
Last element of RFO vector              ....  0.997704138
Lowest eigenvalues of augmented Hessian:
 -0.003083881  0.452230819  0.465384118  0.785620019  0.785729714
Length of the computed step             ....  0.067879205
The final length of the internal step   ....  0.067879205
Converting the step to cartesian space:
 Initial RMS(Int)=    0.0277115695
Transforming coordinates:
 Iter   0:  RMS(Cart)=    0.0272178443 RMS(Int)=    0.0276800643
 Iter   1:  RMS(Cart)=    0.0004071736 RMS(Int)=    0.0006538946
 Iter   2:  RMS(Cart)=    0.0000139360 RMS(Int)=    0.0000157597
 Iter   3:  RMS(Cart)=    0.0000006045 RMS(Int)=    0.0000008711
 Iter   4:  RMS(Cart)=    0.0000000180 RMS(Int)=    0.0000000264
done
Storing new coordinates                 .... done

                                .--------------------.
          ----------------------|Geometry convergence|-------------------------
          Item                value                   Tolerance       Converged
          ---------------------------------------------------------------------
          RMS gradient        0.0203529230            0.0005000000      NO
          MAX gradient        0.0420599447            0.0020000000      NO
          RMS step            0.0277115695            0.0070000000      NO
          MAX step            0.0526618489            0.0100000000      NO
          ........................................................
          Max(Bonds)      0.0200      Max(Angles)    3.02
          Max(Dihed)        0.00      Max(Improp)    0.00
          ---------------------------------------------------------------------

The optimization has not yet converged - more geometry cycles are needed


    ---------------------------------------------------------------------------
                         Redundant Internal Coordinates
                            (Angstroem and degrees)

        Definition                    Value    dE/dq     Step     New-Value
    ----------------------------------------------------------------------------
     1. B(O   1,Ti  0)                1.6378  0.000395 -0.0001    1.6377   
     2. B(O   2,Ti  0)                1.8339 -0.042060  0.0200    1.8539   
     3. B(H   3,O   2)                0.9903  0.007608 -0.0086    0.9817   
     4. L(O   1,Ti  0,O   2,H   3, 2) 180.00  0.000000   -0.00    180.00   
     5. L(O   1,Ti  0,O   2,H   3, 1) 179.98  0.009305   -0.68    179.31   
     6. A(Ti  0,O   2,H   3)          104.49 -0.023912    3.02    107.51   
    ----------------------------------------------------------------------------

         *************************************************************
         *                GEOMETRY OPTIMIZATION CYCLE   2            *
         *************************************************************
---------------------------------
CARTESIAN COORDINATES (ANGSTROEM)
---------------------------------
  Ti    -1.691475    2.453250   -0.000000
  O     -3.086092    1.594647   -0.000001
  O     -0.101130    3.406018    0.000000
  H      0.633358    2.754715    0.000000

----------------------------
CARTESIAN COORDINATES (A.U.)
----------------------------
  NO LB      ZA    FRAG     MASS         X           Y           Z
   0 Ti   22.0000    0    47.900   -3.196425    4.635970   -0.000000
   1 O     8.0000    0    15.999   -5.831868    3.013446   -0.000002
   2 O     8.0000    0    15.999   -0.191107    6.436441    0.000000
   3 H     1.0000    0     1.008    1.196874    5.205657    0.000000

--------------------------------
INTERNAL COORDINATES (ANGSTROEM)
--------------------------------
 Ti     0   0   0     0.000000000000     0.00000000     0.00000000
 O      1   0   0     1.637728249395     0.00000000     0.00000000
 O      1   2   0     1.853905607644   179.30687312     0.00000000
 H      3   1   2     0.981666066749   107.50955962     0.00000000

---------------------------
INTERNAL COORDINATES (A.U.)
---------------------------
 Ti     0   0   0     0.000000000000     0.00000000     0.00000000
 O      1   0   0     3.094857873143     0.00000000     0.00000000
 O      1   2   0     3.503373876589   179.30687312     0.00000000
 H      3   1   2     1.855080021120   107.50955962     0.00000000



           ************************************************************
           *        Program running with 5 parallel MPI-processes     *
           *              working on a common directory               *
           ************************************************************
------------------------------------------------------------------------------
                   ___                                                        
                  /   \      - P O W E R E D   B Y -                         
                 /     \                                                     
                 |  |  |   _    _      __       _____    __    __             
                 |  |  |  | |  | |    /  \     |  _  \  |  |  /  |          
                  \  \/   | |  | |   /    \    | | | |  |  | /  /          
                 / \  \   | |__| |  /  /\  \   | |_| |  |  |/  /          
                |  |  |   |  __  | /  /__\  \  |    /   |      \           
                |  |  |   | |  | | |   __   |  |    \   |  |\   \          
                \     /   | |  | | |  |  |  |  | |\  \  |  | \   \       
                 \___/    |_|  |_| |__|  |__|  |_| \__\ |__|  \__/        
                                                                              
                      - O R C A' S   B I G   F R I E N D -                    
                                      &                                       
                       - I N T E G R A L  F E E D E R -                       
                                                                              
 v1 FN, 2020, v2 2021                                                         
------------------------------------------------------------------------------


Reading SHARK input file TiOOH_COMPLETE.SHARKINP.tmp ... ok
----------------------
SHARK INTEGRAL PACKAGE
----------------------

Number of atoms                             ...      4
Number of basis functions                   ...     64
Number of shells                            ...     26
Maximum angular momentum                    ...      3
Integral batch strategy                     ... SHARK/LIBINT Hybrid
RI-J (if used) integral strategy            ... SPLIT-RIJ (Revised 2003 algorithm where possible)
Printlevel                                  ...      1
Contraction scheme used                     ... SEGMENTED contraction
Coulomb Range Separation                    ... NOT USED
Exchange Range Separation                   ... NOT USED
Finite Nucleus Model                        ... NOT USED
Auxiliary Coulomb fitting basis             ... AVAILABLE
   # of basis functions in Aux-J            ...    198
   # of shells in Aux-J                     ...     58
   Maximum angular momentum in Aux-J        ...      4
Auxiliary J/K fitting basis                 ... NOT available
Auxiliary Correlation fitting basis         ... NOT available
Auxiliary 'external' fitting basis          ... NOT available
Integral threshold                          ...     2.500000e-11
Primitive cut-off                           ...     2.500000e-12
Primitive pair pre-selection threshold      ...     2.500000e-12

Calculating pre-screening integrals         ... done (  0.0 sec) Dimension = 26
Organizing shell pair data                  ... done (  0.0 sec)
Shell pair information
Total number of shell pairs                 ...       351
Shell pairs after pre-screening             ...       338
Total number of primitive shell pairs       ...      1780
Primitive shell pairs kept                  ...      1403
          la=0 lb=0:     85 shell pairs
          la=1 lb=0:     99 shell pairs
          la=1 lb=1:     36 shell pairs
          la=2 lb=0:     50 shell pairs
          la=2 lb=1:     32 shell pairs
          la=2 lb=2:     10 shell pairs
          la=3 lb=0:     13 shell pairs
          la=3 lb=1:      8 shell pairs
          la=3 lb=2:      4 shell pairs
          la=3 lb=3:      1 shell pairs

Calculating one electron integrals          ... done (  0.0 sec)
Calculating RI/J V-Matrix + Cholesky decomp.... done (  0.0 sec)
Calculating Nuclear repulsion               ... done (  0.0 sec) ENN=    127.170649929516 Eh

SHARK setup successfully completed in   0.1 seconds

Maximum memory used throughout the entire GTOINT-calculation: 14.1 MB


           ************************************************************
           *        Program running with 5 parallel MPI-processes     *
           *              working on a common directory               *
           ************************************************************

Diagonalization of the overlap matrix:
Smallest eigenvalue                        ... 1.366e-02
Time for diagonalization                   ...    0.001 sec
Threshold for overlap eigenvalues          ... 1.000e-08
Number of eigenvalues below threshold      ... 0
Time for construction of square roots      ...    0.005 sec
Total time needed                          ...    0.006 sec

-------------------
DFT GRID GENERATION
-------------------

General Integration Accuracy     IntAcc      ... 4.388
Radial Grid Type                 RadialGrid  ... OptM3 with GC (2021)
Angular Grid (max. ang.)         AngularGrid ... 4 (Lebedev-302)
Angular grid pruning method      GridPruning ... 4 (adaptive)
Weight generation scheme         WeightScheme... Becke
Basis function cutoff            BFCut       ... 1.0000e-11
Integration weight cutoff        WCut        ... 1.0000e-14
Angular grids for H and He will be reduced by one unit
Partially contracted basis set               ... off
Rotationally invariant grid construction     ... off

Total number of grid points                  ...    26836
Total number of batches                      ...      421
Average number of points per batch           ...       63
Average number of grid points per atom       ...     6709
Time for grid setup =    0.112 sec

--------------
SCF ITERATIONS
--------------
ITER       Energy         Delta-E        Max-DP      RMS-DP      [F,P]     Damp
               ***  Starting incremental Fock matrix formation  ***
  0   -997.2101819163   0.000000000000 0.00198029  0.00009030  0.0032998 0.7000
  1   -997.2102932081  -0.000111291831 0.00179574  0.00008617  0.0025243 0.7000
                               ***Turning on DIIS***
  2   -997.2103820460  -0.000088837889 0.00451268  0.00023386  0.0018329 0.0000
  3   -997.2105964296  -0.000214383587 0.01941305  0.00051078  0.0002800 0.0000
  4   -997.2105755624   0.000020867230 0.00013369  0.00000371  0.0017370 0.0000
  5   -997.2105796402  -0.000004077868 0.00010025  0.00000248  0.0016365 0.0000
  6   -997.2105819322  -0.000002292007 0.00009333  0.00000215  0.0015799 0.0000
  7   -997.2105835162  -0.000001583935 0.00008785  0.00000201  0.0015396 0.0000
  8   -997.2105846237  -0.000001107480 0.00308512  0.00007841  0.0015106 0.0000
  9   -997.2106010423  -0.000016418691 0.00054614  0.00002709  0.0012222 0.0000
 10   -997.2106092128  -0.000008170469 0.01224068  0.00032356  0.0003382 0.0000
 11   -997.2105889532   0.000020259567 0.00024691  0.00000676  0.0015553 0.0000
 12   -997.2105941463  -0.000005193092 0.00020500  0.00000463  0.0013154 0.0000
 13   -997.2105973284  -0.000003182052 0.00023389  0.00001148  0.0011573 0.0000
 14   -997.2105950104   0.000002317950 0.00013546  0.00000492  0.0013751 0.0000
 15   -997.2105953647  -0.000000354278 0.00225718  0.00005900  0.0013919 0.0000
 16   -997.2106030954  -0.000007730680 0.00053847  0.00002505  0.0010759 0.0000
 17   -997.2106096290  -0.000006533601 0.00947893  0.00025232  0.0005303 0.0000
 18   -997.2106005123   0.000009116733 0.00013634  0.00000431  0.0010468 0.0000
 19   -997.2106020183  -0.000001506007 0.00014157  0.00000322  0.0010412 0.0000
               *** Restarting incremental Fock matrix formation ***
                                   *** Resetting DIIS ***

 WARNING: the maximum gradient error descreased on average only by a factor   1.1
          during the last 20 iterations

                      *** Initiating the TRAH-SCF procedure ***


TRAH GRID
---------

General Integration Accuracy     IntAcc      ... 3.467
Radial Grid Type                 RadialGrid  ... OptM3 with GC (2021)
Angular Grid (max. ang.)         AngularGrid ... 1 (Lebedev-50)
Angular grid pruning method      GridPruning ... 4 (adaptive)
Weight generation scheme         WeightScheme... Becke
Basis function cutoff            BFCut       ... 1.0000e-11
Integration weight cutoff        WCut        ... 1.0000e-14
Angular grids for H and He will be reduced by one unit
Partially contracted basis set               ... off
Rotationally invariant grid construction     ... off

Total number of grid points                  ...     6678
Total number of batches                      ...      107
Average number of points per batch           ...       62
Average number of grid points per atom       ...     1670

 --------------------------------------------------------------------------------------------
   Iter.        energy            ||Error||_2        Shift      TRadius  Mac/Mic        Rej.
 --------------------------------------------------------------------------------------------
    0       -997.210603548191     4.055904e-03                     0.400 (TRAH MAcro)   No
WARNING : small    HOMO - LUMO gap : (op = alpha) 0.007397
    0     dE    -6.586321e-06     3.950706e-03    -6.5863e-06      0.002 (TRAH MIcro)
    0     dE    -1.034615e-05     5.185801e-04    -1.0345e-05      0.011 (TRAH MIcro)
    0     dE    -1.045553e-05     2.371595e-04    -1.0454e-05      0.011 (TRAH MIcro)
    1       -997.210613876092     2.427315e-04                           (NR   MAcro)
WARNING : small    HOMO - LUMO gap : (op = alpha) 0.008465
    1     dE    -1.460489e-08     1.994085e-04                           (NR   MIcro)
    1     dE    -2.639887e-08     8.446716e-05                           (NR   MIcro)
    1     dE    -2.903871e-08     2.992608e-05                           (NR   MIcro)
    1     dE    -2.949460e-08     9.065072e-06                           (NR   MIcro)
    1     dE    -2.976586e-08     6.106410e-06                           (NR   MIcro)
    1     dE    -2.977735e-08     1.138012e-06                           (NR   MIcro)
    1     dE    -2.977828e-08     4.911115e-07                           (NR   MIcro)
    2       -997.210613905876     5.131520e-07                           (NR   MAcro)
WARNING : small    HOMO - LUMO gap : (op = alpha) 0.008434
    2     dE    -9.214070e-14     3.111720e-07                           (NR   MIcro)
    3       -997.210613905876     3.112490e-07                           (NR   MAcro)
WARNING : small    HOMO - LUMO gap : (op = alpha) 0.008434

               *****************************************************
               *                     SUCCESS                       *
               *           SCF CONVERGED AFTER  35 CYCLES          *
               *****************************************************

Total Energy       :         -997.21061391 Eh          -27135.48035 eV
  Last Energy change         ...   -4.5475e-13  Tolerance :   1.0000e-08
  Last Orbital Gradient      ...    3.1125e-07  Tolerance :   1.0000e-05
  Last Orbital Rotation      ...    9.4138e-07

             **** THE GBW FILE WAS UPDATED (TiOOH_COMPLETE.gbw) ****
             **** DENSITY TiOOH_COMPLETE.scfp WAS UPDATED ****
             **** ENERGY FILE WAS UPDATED (TiOOH_COMPLETE.en.tmp) ****
----------------------
UHF SPIN CONTAMINATION
----------------------

Warning: in a DFT calculation there is little theoretical justification to 
         calculate <S**2> as in Hartree-Fock theory. We will do it anyways
         but you should keep in mind that the values have only limited relevance

Expectation value of <S**2>     :     0.756803
Ideal value S*(S+1) for S=0.5   :     0.750000
Deviation                       :     0.006803

             **** THE GBW FILE WAS UPDATED (TiOOH_COMPLETE.gbw) ****
             **** DENSITY TiOOH_COMPLETE.scfp WAS UPDATED ****
Total SCF time: 0 days 0 hours 0 min 2 sec 

Maximum memory used throughout the entire SCF-calculation: 9.5 MB

-------------------------   --------------------
FINAL SINGLE POINT ENERGY      -997.210613905876
-------------------------   --------------------



           ************************************************************
           *        Program running with 5 parallel MPI-processes     *
           *              working on a common directory               *
           ************************************************************
------------------------------------------------------------------------------
                         ORCA SCF GRADIENT CALCULATION
------------------------------------------------------------------------------

Gradient of the Kohn-Sham DFT energy:
Kohn-Sham wavefunction type      ... UKS
Hartree-Fock exchange scaling    ...    0.000
Number of operators              ...    2
Number of atoms                  ...    4
Basis set dimensions             ...   64
Integral neglect threshold       ... 2.5e-11
Integral primitive cutoff        ... 2.5e-12
SHARK Integral package           ... ON

Nuc. rep. gradient       (SHARK) ... done (  0.0 sec)
HCore & Overlap gradient (SHARK) ... done (  0.0 sec)
RI-J gradient            (SHARK) ... done (  0.1 sec)
Exchange-correlation gradient    ... done

------------------
CARTESIAN GRADIENT
------------------

   1   Ti  :    0.035600976    0.005246308   -0.000000033
   2   O   :   -0.004104717    0.002188092    0.000000015
   3   O   :   -0.024571181    0.003276588    0.000000015
   4   H   :   -0.006925078   -0.010710988    0.000000003

Difference to translation invariance:
           :    0.0000000000   -0.0000000000    0.0000000000

Difference to rotation invariance:
           :    0.0000000085   -0.0000000108   -0.0014511471

Norm of the cartesian gradient     ...    0.0457575197
RMS gradient                       ...    0.0132090582
MAX gradient                       ...    0.0356009757

-------
TIMINGS
-------

Total SCF gradient time            ...        0.159 sec

One electron gradient       ....       0.004 sec  (  2.5%)
RI-J Coulomb gradient       ....       0.078 sec  ( 49.1%)
XC gradient                 ....       0.042 sec  ( 26.4%)

Maximum memory used throughout the entire SCFGRAD-calculation: 6.9 MB
------------------------------------------------------------------------------
                         ORCA GEOMETRY RELAXATION STEP
------------------------------------------------------------------------------

Reading the OPT-File                    .... done
Getting information on internals        .... done
Copying old internal coords+grads       .... done
Making the new internal coordinates     .... (new redundants).... done
Validating the new internal coordinates .... (new redundants).... done
Calculating the B-matrix                .... done
Calculating the G,G- and P matrices     .... done
Transforming gradient to internals      .... done
Projecting the internal gradient        .... done
Number of atoms                         ....   4
Number of internal coordinates          ....   6
Current Energy                          ....  -997.210613906 Eh
Current gradient norm                   ....     0.045757520 Eh/bohr
Maximum allowed component of the step   ....  0.300
Current trust radius                    ....  0.300
Updating the Hessian (BFGS)             .... done
Forming the augmented Hessian           .... done
Diagonalizing the augmented Hessian     .... done
Last element of RFO vector              ....  0.937032164
Lowest eigenvalues of augmented Hessian:
 -0.013943863  0.097672942  0.507667600  0.720599782  0.785620019
Length of the computed step             ....  0.372711938
Warning: the length of the step is outside the trust region - taking restricted step instead
The input lambda is                     ....    -0.013944
   iter:   1  x=   -0.031256  g=    2.825432 f(x)=     0.048914
   iter:   2  x=   -0.037282  g=    1.735119 f(x)=     0.010456
   iter:   3  x=   -0.037796  g=    1.489445 f(x)=     0.000765
   iter:   4  x=   -0.037799  g=    1.470699 f(x)=     0.000005
   iter:   5  x=   -0.037799  g=    1.470581 f(x)=     0.000000
   iter:   6  x=   -0.037799  g=    1.470581 f(x)=    -0.000000
The output lambda is                    ....    -0.037799 (6 iterations)
The final length of the internal step   ....  0.300000000
Converting the step to cartesian space:
 Initial RMS(Int)=    0.1224744871
Transforming coordinates:
 Iter   0:  RMS(Cart)=    0.1013212949 RMS(Int)=    0.1065662751
 Iter   1:  RMS(Cart)=    0.0192602628 RMS(Int)=    0.0210807817
 Iter   2:  RMS(Cart)=    0.0032939630 RMS(Int)=    0.0057108746
 Iter   3:  RMS(Cart)=    0.0005985975 RMS(Int)=    0.0005885154
 Iter   4:  RMS(Cart)=    0.0001032072 RMS(Int)=    0.0001813248
 Iter   5:  RMS(Cart)=    0.0000189095 RMS(Int)=    0.0000184588
 Iter   6:  RMS(Cart)=    0.0000032188 RMS(Int)=    0.0000056736
 Iter   7:  RMS(Cart)=    0.0000005932 RMS(Int)=    0.0000005774
 Iter   8:  RMS(Cart)=    0.0000001005 RMS(Int)=    0.0000001776
 Iter   9:  RMS(Cart)=    0.0000000186 RMS(Int)=    0.0000000181
done
Storing new coordinates                 .... done

                                .--------------------.
          ----------------------|Geometry convergence|-------------------------
          Item                value                   Tolerance       Converged
          ---------------------------------------------------------------------
          Energy change      -0.0028216966            0.0000300000      NO
          RMS gradient        0.0165273488            0.0005000000      NO
          MAX gradient        0.0308040927            0.0020000000      NO
          RMS step            0.1224744871            0.0070000000      NO
          MAX step            0.2487619291            0.0100000000      NO
          ........................................................
          Max(Bonds)      0.0785      Max(Angles)   14.25
          Max(Dihed)        0.00      Max(Improp)    0.00
          ---------------------------------------------------------------------

The optimization has not yet converged - more geometry cycles are needed


    ---------------------------------------------------------------------------
                         Redundant Internal Coordinates
                            (Angstroem and degrees)

        Definition                    Value    dE/dq     Step     New-Value
    ----------------------------------------------------------------------------
     1. B(O   1,Ti  0)                1.6377  0.002367 -0.0025    1.6353   
     2. B(O   2,Ti  0)                1.8539 -0.030804  0.0785    1.9324   
     3. B(H   3,O   2)                0.9817  0.001827 -0.0148    0.9669   
     4. L(O   1,Ti  0,O   2,H   3, 2) 180.00  0.000000   -0.00    180.00   
     5. L(O   1,Ti  0,O   2,H   3, 1) 179.31  0.011897   -4.18    175.12   
     6. A(Ti  0,O   2,H   3)          107.51 -0.023228   14.25    121.76   
    ----------------------------------------------------------------------------

         *************************************************************
         *                GEOMETRY OPTIMIZATION CYCLE   3            *
         *************************************************************
---------------------------------
CARTESIAN COORDINATES (ANGSTROEM)
---------------------------------
  Ti    -1.780884    2.448667   -0.000000
  O     -3.162195    1.573425   -0.000001
  O     -0.066602    3.340478    0.000000
  H      0.764343    2.846060    0.000000

----------------------------
CARTESIAN COORDINATES (A.U.)
----------------------------
  NO LB      ZA    FRAG     MASS         X           Y           Z
   0 Ti   22.0000    0    47.900   -3.365383    4.627310   -0.000000
   1 O     8.0000    0    15.999   -5.975683    2.973342   -0.000002
   2 O     8.0000    0    15.999   -0.125860    6.312588    0.000000
   3 H     1.0000    0     1.008    1.444400    5.378275    0.000000

--------------------------------
INTERNAL COORDINATES (ANGSTROEM)
--------------------------------
 Ti     0   0   0     0.000000000000     0.00000000     0.00000000
 O      1   0   0     1.635258081083     0.00000000     0.00000000
 O      1   2   0     1.932379200198   175.12492016     0.00000000
 H      3   1   2     0.966912086961   121.76256832     0.00000000

---------------------------
INTERNAL COORDINATES (A.U.)
---------------------------
 Ti     0   0   0     0.000000000000     0.00000000     0.00000000
 O      1   0   0     3.090189931528     0.00000000     0.00000000
 O      1   2   0     3.651667475260   175.12492016     0.00000000
 H      3   1   2     1.827199039934   121.76256832     0.00000000



           ************************************************************
           *        Program running with 5 parallel MPI-processes     *
           *              working on a common directory               *
           ************************************************************
------------------------------------------------------------------------------
[...]
Population analysis         ....       0.035 sec  (  3.2%)
Initial guess               ....       0.002 sec  (  0.2%)
Orbital Transformation      ....       0.000 sec  (  0.0%)
Orbital Orthonormalization  ....       0.001 sec  (  0.1%)
DIIS solution               ....       0.055 sec  (  5.0%)
Grid generation             ....       0.119 sec  ( 10.8%)

Maximum memory used throughout the entire SCF-calculation: 9.6 MB

-------------------------   --------------------
FINAL SINGLE POINT ENERGY      -997.266976264990
-------------------------   --------------------

                                *** OPTIMIZATION RUN DONE ***

                            ***************************************
                            *     ORCA property calculations      *
                            ***************************************

                                    ---------------------
                                    Active property flags
                                    ---------------------
   (+) Dipole Moment
   (+) Polarizability


------------------------------------------------------------------------------
                       ORCA ELECTRIC PROPERTIES CALCULATION
------------------------------------------------------------------------------

Dipole Moment Calculation                       ... on
Quadrupole Moment Calculation                   ... off
Polarizability Calculation                      ... Analytic (CP-SCF)
GBWName                                         ... TiOOH_COMPLETE.gbw
Electron density                                ... TiOOH_COMPLETE.scfp
The origin for moment calculation is the CENTER OF MASS  = (-3.235906,  5.193128  0.000000)

-------------
DIPOLE MOMENT
-------------
                                X             Y             Z
Electronic contribution:     -3.13943       2.01817       0.00001
Nuclear contribution   :      3.14053      -1.25449      -0.00000
                        -----------------------------------------
Total Dipole Moment    :      0.00111       0.76369       0.00000
                        -----------------------------------------
Magnitude (a.u.)       :      0.76369
Magnitude (Debye)      :      1.94114



--------------------
Rotational spectrum 
--------------------
 
Rotational constants in cm-1:     0.809451     0.273700     0.204539 
Rotational constants in MHz : 24266.734492  8205.330216  6131.934374 

 Dipole components along the rotational axes: 
x,y,z [a.u.] :     0.429029     0.631784     0.000002 
x,y,z [Debye]:     1.090505     1.605869     0.000004 

 
Transforming and storing MO dipole integrals   ... done

                ... starting polarizability calculation

The origin for moment calculation is the CENTER OF MASS  = (-3.235906,  5.193128  0.000000)
Opening the Dipole integral file               ... (TiOOH_COMPLETE.dmo.tmp) done
Reading Dipole-MO integrals                    ... done
Solving CP-SCF equations                       ... 

           ************************************************************
           *        Program running with 5 parallel MPI-processes     *
           *              working on a common directory               *
           ************************************************************

------------------------------------------------------------------------------
                           ORCA CP-SCF CALCULATION
------------------------------------------------------------------------------

Input orbitals are from        ... TiOOH_COMPLETE.gbw
Input Perturbation             ... TiOOH_COMPLETE.cpv.tmp
Wavefunction output            ... TiOOH_COMPLETE.cpu.tmp
Perturbation mode              ... Real perturbation (singlet)
Solver                         ... POPLE
Max. number of iterations      ... 64
Convergence tolerance          ... 1.000e-04
Integral handling              ... Direct
DFT GridXC                     ... 1
Number of perturbations        ... 3
Number of operators            ... 2
Orbital ranges used for CP-SCF:
 Operator 0:  Orbitals   0... 19  to  20... 63
 Operator 1:  Orbitals   0... 18  to  19... 63
Variables per perturbation     ... 1735
DFT calculation                         ... on
XC functional terms                     ... on
Exchange functional (SCF)               ... Slater
Exchange functional (CP-SCF)            ... Slater
   X-Alpha parameter    XAlpha (SCF)    ...  0.666667
   X-Alpha parameter    XAlpha (CP-SCF) ...  0.666667
Correlation functional (SCF)            ... VWN-5
Correlation functional (CP-SCF)         ... VWN-5

CP-SCF GRID
-----------

General Integration Accuracy     IntAcc      ... 3.467
Radial Grid Type                 RadialGrid  ... OptM3 with GC (2021)
Angular Grid (max. ang.)         AngularGrid ... 1 (Lebedev-50)
Angular grid pruning method      GridPruning ... 4 (adaptive)
Weight generation scheme         WeightScheme... Becke
Basis function cutoff            BFCut       ... 1.0000e-11
Integration weight cutoff        WCut        ... 1.0000e-14
Angular grids for H and He will be reduced by one unit
Partially contracted basis set               ... off
Rotationally invariant grid construction     ... off

Total number of grid points                  ...     6664
Total number of batches                      ...      106
Average number of points per batch           ...       62
Average number of grid points per atom       ...     1666

Recalculating density on grid  ... done
Calculating the xc-kernel      ... done
Memory available               ... 1020.2 MB
Memory needed per perturbation ...   0.5 MB
Perturbations treated per batch... 3
Number of batches              ... 1
     CP-SCF ITERATION   0:   5.8963e+01 (   0.0 sec   0/  3 done)
     CP-SCF ITERATION   1:   3.2988e+00 (   0.0 sec   0/  3 done)
     CP-SCF ITERATION   2:   1.3870e+00 (   0.0 sec   0/  3 done)
     CP-SCF ITERATION   3:   6.0774e-01 (   0.0 sec   0/  3 done)
     CP-SCF ITERATION   4:   1.5393e-01 (   0.0 sec   0/  3 done)
     CP-SCF ITERATION   5:   4.3347e-02 (   0.0 sec   0/  3 done)
     CP-SCF ITERATION   6:   1.1094e-02 (   0.0 sec   0/  3 done)
     CP-SCF ITERATION   7:   3.3141e-03 (   0.0 sec   0/  3 done)
     CP-SCF ITERATION   8:   8.8066e-04 (   0.0 sec   1/  3 done)
     CP-SCF ITERATION   9:   1.8241e-04 (   0.0 sec   1/  3 done)
     CP-SCF ITERATION  10:   3.6872e-05 (   0.0 sec   3/  3 done)
                    *** THE CP-SCF HAS CONVERGED ***
done
Reading CP-SCF coefficients                    ... done
Doing the polarizability tensor                ... done
Cleaning up                                    ... done

-------------------------
THE POLARIZABILITY TENSOR
-------------------------

The raw cartesian tensor (atomic units):
   53.67023     -8.24072     -0.00001  
   -8.24072     48.32015     -0.00000  
   -0.00001     -0.00000     53.44541  
diagonalized tensor: 
   42.33116     53.44541     59.65922  

   -0.58790     -0.00000      0.80894  
   -0.80894      0.00000     -0.58790  
   -0.00000     -1.00000     -0.00000  

Isotropic polarizability :  51.81193


----------------------------------------------------------------------------
                           ORCA NUMERICAL FREQUENCIES
                              (5-process run)
----------------------------------------------------------------------------

Number of atoms                ... 4
Central differences            ... used
Number of displacements        ... 24
Numerical increment            ... 5.000e-03 bohr
IR-spectrum generation         ... on
Raman-spectrum generation      ... on
Polarizability calculation     ... 1
Surface Crossing Hessian       ... off

The output will be reduced. Please look at the following files:
SCF program output             ... >TiOOH_COMPLETE.lastscf
Integral program output        ... >TiOOH_COMPLETE.lastint
Gradient program output        ... >TiOOH_COMPLETE.lastgrad
Dipole moment program output   ... >TiOOH_COMPLETE.lastmom
AutoCI program output          ... >TiOOH_COMPLETE.lastautoci

	<< Calculating on displaced geometry   2 (of  24) >>
	<< Calculating on displaced geometry   1 (of  24) >>
	<< Calculating on displaced geometry   3 (of  24) >>
	<< Calculating on displaced geometry   5 (of  24) >>
	<< Calculating on displaced geometry   4 (of  24) >>
	<< Calculating on displaced geometry   6 (of  24) >>
	<< Calculating on displaced geometry   7 (of  24) >>
	<< Calculating on displaced geometry   8 (of  24) >>
	<< Calculating on displaced geometry  10 (of  24) >>
	<< Calculating on displaced geometry   9 (of  24) >>
	<< Calculating on displaced geometry  11 (of  24) >>
	<< Calculating on displaced geometry  12 (of  24) >>
	<< Calculating on displaced geometry  13 (of  24) >>
	<< Calculating on displaced geometry  14 (of  24) >>
	<< Calculating on displaced geometry  15 (of  24) >>
	<< Calculating on displaced geometry  16 (of  24) >>
	<< Calculating on displaced geometry  17 (of  24) >>
	<< Calculating on displaced geometry  18 (of  24) >>
	<< Calculating on displaced geometry  19 (of  24) >>
	<< Calculating on displaced geometry  20 (of  24) >>
	<< Calculating on displaced geometry  22 (of  24) >>
	<< Calculating on displaced geometry  21 (of  24) >>
	<< Calculating on displaced geometry  24 (of  24) >>
	<< Calculating on displaced geometry  23 (of  24) >>

-----------------------
VIBRATIONAL FREQUENCIES
-----------------------

Scaling factor for frequencies =  1.000000000 (already applied!)

   0:         0.00 cm**-1
   1:         0.00 cm**-1
   2:         0.00 cm**-1
   3:         0.00 cm**-1
   4:         0.00 cm**-1
   5:         0.00 cm**-1
   6:       254.73 cm**-1
   7:       501.34 cm**-1
   8:       528.27 cm**-1
   9:       802.91 cm**-1
  10:      1099.07 cm**-1
  11:      3779.36 cm**-1


------------
NORMAL MODES
------------

These modes are the cartesian displacements weighted by the diagonal matrix
M(i,i)=1/sqrt(m[i]) where m[i] is the mass of the displaced atom
Thus, these vectors are normalized but *not* orthogonal

                  0          1          2          3          4          5    
      0       0.000000   0.000000   0.000000   0.000000   0.000000   0.000000
      1       0.000000   0.000000   0.000000   0.000000   0.000000   0.000000
      2       0.000000   0.000000   0.000000   0.000000   0.000000   0.000000
      3       0.000000   0.000000   0.000000   0.000000   0.000000   0.000000
      4       0.000000   0.000000   0.000000   0.000000   0.000000   0.000000
      5       0.000000   0.000000   0.000000   0.000000   0.000000   0.000000
      6       0.000000   0.000000   0.000000   0.000000   0.000000   0.000000
      7       0.000000   0.000000   0.000000   0.000000   0.000000   0.000000
      8       0.000000   0.000000   0.000000   0.000000   0.000000   0.000000
      9       0.000000   0.000000   0.000000   0.000000   0.000000   0.000000
     10       0.000000   0.000000   0.000000   0.000000   0.000000   0.000000
     11       0.000000   0.000000   0.000000   0.000000   0.000000   0.000000
                  6          7          8          9         10         11    
      0      -0.082386   0.000000   0.005592   0.223767   0.045632  -0.000185
      1       0.086796  -0.000002  -0.020978  -0.001314   0.315437  -0.000070
      2       0.000000   0.020561  -0.000002  -0.000000   0.000001   0.000000
      3       0.335935  -0.000003  -0.049092  -0.032930  -0.166972  -0.000206
      4       0.014533  -0.000000  -0.015995   0.017260  -0.929614  -0.000372
      5      -0.000000  -0.032167   0.000003   0.000000  -0.000002  -0.000000
      6      -0.053923   0.000005   0.078701  -0.589125   0.025890   0.044156
      7      -0.229754   0.000008   0.120355  -0.003620  -0.016059  -0.044923
      8      -0.000001  -0.092083   0.000007   0.000001  -0.000001   0.000000
      9      -0.561117  -0.000049  -0.735678  -0.760087   0.070836  -0.688768
     10      -0.708568  -0.000043  -0.659516  -0.154047   0.020214   0.722240
     11       0.000002   0.995019  -0.000077   0.000000   0.000010  -0.000000


-----------
IR SPECTRUM
-----------

 Mode   freq       eps      Int      T**2         TX        TY        TZ
       cm**-1   L/(mol*cm) km/mol    a.u.
----------------------------------------------------------------------------
  6:    254.73   0.004578   23.13  0.005608  (-0.068759 -0.029669  0.000000)
  7:    501.34   0.026307  132.94  0.016375  (-0.000012 -0.000008  0.127964)
  8:    528.27   0.028275  142.89  0.016703  (-0.116331 -0.056301 -0.000009)
  9:    802.91   0.022805  115.25  0.008864  ( 0.094095 -0.003141 -0.000000)
 10:   1099.07   0.031160  157.47  0.008847  ( 0.018867  0.092149  0.000000)
 11:   3779.36   0.048570  245.45  0.004010  (-0.055879  0.029799 -0.000000)

* The epsilon (eps) is given for a Dirac delta lineshape.
** The dipole moment derivative (T) already includes vibrational overlap.

--------------
RAMAN SPECTRUM  
--------------

 Mode    freq (cm**-1)   Activity   Depolarization
-------------------------------------------------------------------
   6:       254.73      1.888381      0.052172
   7:       501.34      4.162464      0.750000
   8:       528.27      2.988233      0.066637
   9:       802.91     27.418677      0.334898
  10:      1099.07     21.059349      0.619617
  11:      3779.36    137.685734      0.263905

The first frequency considered to be a vibration is 6
The total number of vibrations considered is 6


--------------------------
THERMOCHEMISTRY AT 298.15K
--------------------------

Temperature         ... 298.15 K
Pressure            ... 1.00 atm
Total Mass          ... 80.91 AMU

Throughout the following assumptions are being made:
  (1) The electronic state is orbitally nondegenerate
      but the spin degeneracy is treated
  (2) There are no thermally accessible electronically excited states
  (3) Hindered rotations indicated by low frequency modes are not
      treated as such but are treated as vibrations and this may
      cause some error
  (4) All equations used are the standard statistical mechanics
      equations for an ideal gas
  (5) All vibrations are strictly harmonic

freq.     254.73  E(vib)   ...       0.30 
freq.     501.34  E(vib)   ...       0.14 
freq.     528.27  E(vib)   ...       0.13 
freq.     802.91  E(vib)   ...       0.05 
freq.    1099.07  E(vib)   ...       0.02 
freq.    3779.36  E(vib)   ...       0.00 

------------
INNER ENERGY
------------

The inner energy is: U= E(el) + E(ZPE) + E(vib) + E(rot) + E(trans)
    E(el)   - is the total energy from the electronic structure calculation
              = E(kin-el) + E(nuc-el) + E(el-el) + E(nuc-nuc)
    E(ZPE)  - the the zero temperature vibrational energy from the frequency calculation
    E(vib)  - the the finite temperature correction to E(ZPE) due to population
              of excited vibrational states
    E(rot)  - is the rotational thermal energy
    E(trans)- is the translational thermal energy

Summary of contributions to the inner energy U:
Electronic energy                ...   -997.26697627 Eh
Zero point energy                ...      0.01586901 Eh       9.96 kcal/mol
Thermal vibrational correction   ...      0.00100966 Eh       0.63 kcal/mol
Thermal rotational correction    ...      0.00141627 Eh       0.89 kcal/mol
Thermal translational correction ...      0.00141627 Eh       0.89 kcal/mol
-----------------------------------------------------------------------
Total thermal energy                   -997.24726505 Eh


Summary of corrections to the electronic energy:
(perhaps to be used in another calculation)
Total thermal correction                  0.00384221 Eh       2.41 kcal/mol
Non-thermal (ZPE) correction              0.01586901 Eh       9.96 kcal/mol
-----------------------------------------------------------------------
Total correction                          0.01971122 Eh      12.37 kcal/mol


--------
ENTHALPY
--------

The enthalpy is H = U + kB*T
                kB is Boltzmann's constant
Total free energy                 ...   -997.24726505 Eh 
Thermal Enthalpy correction       ...      0.00094421 Eh       0.59 kcal/mol
-----------------------------------------------------------------------
Total Enthalpy                    ...   -997.24632084 Eh


Note: Rotational entropy computed according to Herzberg 
Infrared and Raman Spectra, Chapter V,1, Van Nostrand Reinhold, 1945 
Point Group:  Cs, Symmetry Number:   1  
Rotational constants in cm-1:     0.809451     0.273700     0.204539 

Vibrational entropy computed according to the QRRHO of S. Grimme
Chem.Eur.J. 2012 18 9955


-------
ENTROPY
-------

The entropy contributions are T*S = T*(S(el)+S(vib)+S(rot)+S(trans))
     S(el)   - electronic entropy
     S(vib)  - vibrational entropy
     S(rot)  - rotational entropy
     S(trans)- translational entropy
The entropies will be listed as multiplied by the temperature to get
units of energy

Electronic entropy                ...      0.00065446 Eh      0.41 kcal/mol
Vibrational entropy               ...      0.00152913 Eh      0.96 kcal/mol
Rotational entropy                ...      0.01097151 Eh      6.88 kcal/mol
Translational entropy             ...      0.01857116 Eh     11.65 kcal/mol
-----------------------------------------------------------------------
Final entropy term                ...      0.03172626 Eh     19.91 kcal/mol

In case the symmetry of your molecule has not been determined correctly
or in case you have a reason to use a different symmetry number we print 
out the resulting rotational entropy values for sn=1,12 :
 --------------------------------------------------------
|  sn= 1 | S(rot)=       0.01097151 Eh      6.88 kcal/mol|
|  sn= 2 | S(rot)=       0.01031706 Eh      6.47 kcal/mol|
|  sn= 3 | S(rot)=       0.00993422 Eh      6.23 kcal/mol|
|  sn= 4 | S(rot)=       0.00966260 Eh      6.06 kcal/mol|
|  sn= 5 | S(rot)=       0.00945191 Eh      5.93 kcal/mol|
|  sn= 6 | S(rot)=       0.00927977 Eh      5.82 kcal/mol|
|  sn= 7 | S(rot)=       0.00913422 Eh      5.73 kcal/mol|
|  sn= 8 | S(rot)=       0.00900814 Eh      5.65 kcal/mol|
|  sn= 9 | S(rot)=       0.00889694 Eh      5.58 kcal/mol|
|  sn=10 | S(rot)=       0.00879746 Eh      5.52 kcal/mol|
|  sn=11 | S(rot)=       0.00870747 Eh      5.46 kcal/mol|
|  sn=12 | S(rot)=       0.00862531 Eh      5.41 kcal/mol|
 --------------------------------------------------------


-------------------
GIBBS FREE ENERGY
-------------------

The Gibbs free energy is G = H - T*S

Total enthalpy                    ...   -997.24632084 Eh 
Total entropy correction          ...     -0.03172626 Eh    -19.91 kcal/mol
-----------------------------------------------------------------------
Final Gibbs free energy         ...   -997.27804710 Eh

For completeness - the Gibbs free energy minus the electronic energy
G-E(el)                           ...     -0.01107083 Eh     -6.95 kcal/mol



Timings for individual modules:

Sum of individual times         ...      196.105 sec (=   3.268 min)
GTO integral calculation        ...       28.831 sec (=   0.481 min)  14.7 %
SCF iterations                  ...       73.202 sec (=   1.220 min)  37.3 %
Solution of CP-SCF eqns.        ...        1.824 sec (=   0.030 min)   0.9 %
SCF Gradient evaluation         ...       33.551 sec (=   0.559 min)  17.1 %
Geometry relaxation             ...        1.782 sec (=   0.030 min)   0.9 %
Numerical frequency calculation ...       56.915 sec (=   0.949 min)  29.0 %
                             ****ORCA TERMINATED NORMALLY****
TOTAL RUN TIME: 0 days 0 hours 3 minutes 13 seconds 697 msec
