
                                 *****************
                                 * O   R   C   A *
                                 *****************

                                            #,                                       
                                            ###                                      
                                            ####                                     
                                            #####                                    
                                            ######                                   
                                           ########,                                 
                                     ,,################,,,,,                         
                               ,,#################################,,                 
                          ,,##########################################,,             
                       ,#########################################, ''#####,          
                    ,#############################################,,   '####,        
                  ,##################################################,,,,####,       
                ,###########''''           ''''###############################       
              ,#####''   ,,,,##########,,,,          '''####'''          '####       
            ,##' ,,,,###########################,,,                        '##       
           ' ,,###''''                  '''############,,,                           
         ,,##''                                '''############,,,,        ,,,,,,###''
      ,#''                                            '''#######################'''  
     '                                                          ''''####''''         
             ,#######,   #######,   ,#######,      ##                                
            ,#'     '#,  ##    ##  ,#'     '#,    #''#        ######   ,####,        
            ##       ##  ##   ,#'  ##            #'  '#       #        #'  '#        
            ##       ##  #######   ##           ,######,      #####,   #    #        
            '#,     ,#'  ##    ##  '#,     ,#' ,#      #,         ##   #,  ,#        
             '#######'   ##     ##  '#######'  #'      '#     #####' # '####'        



                  #######################################################
                  #                        -***-                        #
                  #          Department of theory and spectroscopy      #
                  #    Directorship and core code : Frank Neese         #
                  #        Max Planck Institute fuer Kohlenforschung    #
                  #                Kaiser Wilhelm Platz 1               #
                  #                 D-45470 Muelheim/Ruhr               #
                  #                      Germany                        #
                  #                                                     #
                  #                  All rights reserved                #
                  #                        -***-                        #
                  #######################################################


                         Program Version 5.0.3 -  RELEASE  -


 With contributions from (in alphabetic order):
   Daniel Aravena         : Magnetic Suceptibility
   Michael Atanasov       : Ab Initio Ligand Field Theory (pilot matlab implementation)
   Alexander A. Auer      : GIAO ZORA, VPT2 properties, NMR spectrum
   Ute Becker             : Parallelization
   Giovanni Bistoni       : ED, misc. LED, open-shell LED, HFLD
   Martin Brehm           : Molecular dynamics
   Dmytro Bykov           : SCF Hessian
   Vijay G. Chilkuri      : MRCI spin determinant printing, contributions to CSF-ICE
   Dipayan Datta          : RHF DLPNO-CCSD density
   Achintya Kumar Dutta   : EOM-CC, STEOM-CC
   Dmitry Ganyushin       : Spin-Orbit,Spin-Spin,Magnetic field MRCI
   Miquel Garcia          : C-PCM and meta-GGA Hessian, CC/C-PCM, Gaussian charge scheme
   Yang Guo               : DLPNO-NEVPT2, F12-NEVPT2, CIM, IAO-localization
   Andreas Hansen         : Spin unrestricted coupled pair/coupled cluster methods
   Benjamin Helmich-Paris : MC-RPA, TRAH-SCF, COSX integrals
   Lee Huntington         : MR-EOM, pCC
   Robert Izsak           : Overlap fitted RIJCOSX, COSX-SCS-MP3, EOM
   Marcus Kettner         : VPT2
   Christian Kollmar      : KDIIS, OOCD, Brueckner-CCSD(T), CCSD density, CASPT2, CASPT2-K
   Simone Kossmann        : Meta GGA functionals, TD-DFT gradient, OOMP2, MP2 Hessian
   Martin Krupicka        : Initial AUTO-CI
   Lucas Lang             : DCDCAS
   Marvin Lechner         : AUTO-CI (C++ implementation), FIC-MRCC
   Dagmar Lenk            : GEPOL surface, SMD
   Dimitrios Liakos       : Extrapolation schemes; Compound Job, initial MDCI parallelization
   Dimitrios Manganas     : Further ROCIS development; embedding schemes
   Dimitrios Pantazis     : SARC Basis sets
   Anastasios Papadopoulos: AUTO-CI, single reference methods and gradients
   Taras Petrenko         : DFT Hessian,TD-DFT gradient, ASA, ECA, R-Raman, ABS, FL, XAS/XES, NRVS
   Peter Pinski           : DLPNO-MP2, DLPNO-MP2 Gradient
   Christoph Reimann      : Effective Core Potentials
   Marius Retegan         : Local ZFS, SOC
   Christoph Riplinger    : Optimizer, TS searches, QM/MM, DLPNO-CCSD(T), (RO)-DLPNO pert. Triples
   Tobias Risthaus        : Range-separated hybrids, TD-DFT gradient, RPA, STAB
   Michael Roemelt        : Original ROCIS implementation
   Masaaki Saitow         : Open-shell DLPNO-CCSD energy and density
   Barbara Sandhoefer     : DKH picture change effects
   Avijit Sen             : IP-ROCIS
   Kantharuban Sivalingam : CASSCF convergence, NEVPT2, FIC-MRCI
   Bernardo de Souza      : ESD, SOC TD-DFT
   Georgi Stoychev        : AutoAux, RI-MP2 NMR, DLPNO-MP2 response
   Willem Van den Heuvel  : Paramagnetic NMR
   Boris Wezisla          : Elementary symmetry handling
   Frank Wennmohs         : Technical directorship


 We gratefully acknowledge several colleagues who have allowed us to
 interface, adapt or use parts of their codes:
   Stefan Grimme, W. Hujo, H. Kruse, P. Pracht,  : VdW corrections, initial TS optimization,
                  C. Bannwarth, S. Ehlert          DFT functionals, gCP, sTDA/sTD-DF
   Ed Valeev, F. Pavosevic, A. Kumar             : LibInt (2-el integral package), F12 methods
   Garnet Chan, S. Sharma, J. Yang, R. Olivares  : DMRG
   Ulf Ekstrom                                   : XCFun DFT Library
   Mihaly Kallay                                 : mrcc  (arbitrary order and MRCC methods)
   Jiri Pittner, Ondrej Demel                    : Mk-CCSD
   Frank Weinhold                                : gennbo (NPA and NBO analysis)
   Christopher J. Cramer and Donald G. Truhlar   : smd solvation model
   Lars Goerigk                                  : TD-DFT with DH, B97 family of functionals
   V. Asgeirsson, H. Jonsson                     : NEB implementation
   FAccTs GmbH                                   : IRC, NEB, NEB-TS, DLPNO-Multilevel, CI-OPT
                                                   MM, QMMM, 2- and 3-layer-ONIOM, Crystal-QMMM,
                                                   LR-CPCM, SF, NACMEs, symmetry and pop. for TD-DFT,
                                                   nearIR, NL-DFT gradient (VV10), updates on ESD,
                                                   ML-optimized integration grids
   S Lehtola, MJT Oliveira, MAL Marques          : LibXC Library
   Liviu Ungur et al                             : ANISO software


 Your calculation uses the libint2 library for the computation of 2-el integrals
 For citations please refer to: http://libint.valeyev.net

 Your ORCA version has been built with support for libXC version: 5.1.0
 For citations please refer to: https://tddft.org/programs/libxc/

 This ORCA versions uses:
   CBLAS   interface :  Fast vector & matrix operations
   LAPACKE interface :  Fast linear algebra routines
   Shared memory     :  Shared parallel matrices


SCAN-COORDS
================================================================================

----- Orbital basis set information -----
Your calculation utilizes the basis: def2-SVP
   F. Weigend and R. Ahlrichs, Phys. Chem. Chem. Phys. 7, 3297 (2005).

----- AuxJ basis set information -----
Your calculation utilizes the auxiliary basis: def2/J
   F. Weigend, Phys. Chem. Chem. Phys. 8, 1057 (2006).

================================================================================
                                        WARNINGS
                       Please study these warnings very carefully!
================================================================================


WARNING: The environment variable RSH_COMMAND is not set!
  ===> : All Displacements for the Numerical Hessian or Gradient calculation
         will be started on localhost

WARNING: Geometry Optimization
  ===> : Switching off AutoStart
         For restart on a previous wavefunction, please use MOREAD

INFO   : the flag for use of the SHARK integral package has been found!

================================================================================
                                       INPUT FILE
================================================================================
NAME = MnOOH_COMPLETE.inp
|  1> ! PAL5 VWN
|  2> %method
|  3>         method DFT
|  4>         runtyp OPT
|  5> end
|  6> 
|  7> %scf                  
|  8>        MaxIter 500
|  9> end
| 10> %geom                  
| 11>        MaxIter 500
| 12>        Convergence loose                                                  
| 13> end
| 14> 
| 15> %basis
| 16>         basis "def2-SVP"
| 17> end
| 18> ! NumFreq
| 19> %elprop
| 20>         Polar 1
| 21> end
| 22> %output
| 23>         XYZFile true
| 24> end
| 25> %coords
| 26>         CTyp xyz
| 27>         Charge 0
| 28>         Mult 1
| 29>         Units Angs
| 30>         coords
| 31> 	Mn    -1.671960    2.457770   -0.000000
| 32> 	O     -3.066310    1.598560   -0.000001
| 33> 	O     -0.110402    3.419370    0.000000
| 34> 	H      0.603334    2.732930    0.000000
| 35>         end
| 36> endd                         ****END OF INPUT****
================================================================================

                       *****************************
                       * Geometry Optimization Run *
                       *****************************

Geometry optimization settings:
Update method            Update   .... BFGS
Choice of coordinates    CoordSys .... Z-matrix Internals
Initial Hessian          InHess   .... Almoef's Model

Convergence Tolerances:
Energy Change            TolE     ....  3.0000e-05 Eh
Max. Gradient            TolMAXG  ....  2.0000e-03 Eh/bohr
RMS Gradient             TolRMSG  ....  5.0000e-04 Eh/bohr
Max. Displacement        TolMAXD  ....  1.0000e-02 bohr
RMS Displacement         TolRMSD  ....  7.0000e-03 bohr
Strict Convergence                ....  False
------------------------------------------------------------------------------
                        ORCA OPTIMIZATION COORDINATE SETUP
------------------------------------------------------------------------------

The optimization will be done in new redundant internal coordinates
Making redundant internal coordinates   ...  (new redundants) done
Evaluating the initial hessian          ...  (Almloef) done
Evaluating the coordinates              ...  done
Calculating the B-matrix                .... done
Calculating the G-matrix                .... done
Diagonalizing the G-matrix              .... done
The first mode is                       ....    0
The number of degrees of freedom        ....    6

    -----------------------------------------------------------------
                    Redundant Internal Coordinates


    -----------------------------------------------------------------
         Definition                    Initial Value    Approx d2E/dq
    -----------------------------------------------------------------
      1. B(O   1,Mn  0)                  1.6378         2.278345   
      2. B(O   2,Mn  0)                  1.8339         1.108686   
      3. B(H   3,O   2)                  0.9903         0.465249   
      4. L(O   1,Mn  0,O   2,H   3, 2) 179.9999         0.785620   
      5. L(O   1,Mn  0,O   2,H   3, 1) 179.9828         0.785620   
      6. A(Mn  0,O   2,H   3)          104.4923         0.450987   
    -----------------------------------------------------------------

Number of atoms                         .... 4
Number of degrees of freedom            .... 6

         *************************************************************
         *                GEOMETRY OPTIMIZATION CYCLE   1            *
         *************************************************************
---------------------------------
CARTESIAN COORDINATES (ANGSTROEM)
---------------------------------
  Mn    -1.671960    2.457770   -0.000000
  O     -3.066310    1.598560   -0.000001
  O     -0.110402    3.419370    0.000000
  H      0.603334    2.732930    0.000000

----------------------------
CARTESIAN COORDINATES (A.U.)
----------------------------
  NO LB      ZA    FRAG     MASS         X           Y           Z
   0 Mn   25.0000    0    54.940   -3.159547    4.644512   -0.000000
   1 O     8.0000    0    15.999   -5.794486    3.020841   -0.000002
   2 O     8.0000    0    15.999   -0.208630    6.461673    0.000000
   3 H     1.0000    0     1.008    1.140136    5.164489    0.000000

--------------------------------
INTERNAL COORDINATES (ANGSTROEM)
--------------------------------
 Mn     0   0   0     0.000000000000     0.00000000     0.00000000
 O      1   0   0     1.637819815059     0.00000000     0.00000000
 O      1   2   0     1.833886023548   179.98284525     0.00000000
 H      3   1   2     0.990262061929   104.49225786   359.88315907

---------------------------
INTERNAL COORDINATES (A.U.)
---------------------------
 Mn     0   0   0     0.000000000000     0.00000000     0.00000000
 O      1   0   0     3.095030907172     0.00000000     0.00000000
 O      1   2   0     3.465542345331   179.98284525     0.00000000
 H      3   1   2     1.871324097858   104.49225786   359.88315907

---------------------
BASIS SET INFORMATION
---------------------
There are 3 groups of distinct atoms

 Group   1 Type Mn  : 14s9p5d1f contracted to 5s3p2d1f pattern {63311/531/41/1}
 Group   2 Type O   : 7s4p1d contracted to 3s2p1d pattern {511/31/1}
 Group   3 Type H   : 4s1p contracted to 2s1p pattern {31/1}

Atom   0Mn   basis set group =>   1
Atom   1O    basis set group =>   2
Atom   2O    basis set group =>   2
Atom   3H    basis set group =>   3
---------------------------------
AUXILIARY/J BASIS SET INFORMATION
---------------------------------
There are 3 groups of distinct atoms

 Group   1 Type Mn  : 19s5p5d3f3g contracted to 8s5p5d2f3g pattern {121111111/11111/11111/21/111}
 Group   2 Type O   : 12s5p4d2f1g contracted to 6s4p3d1f1g pattern {711111/2111/211/2/1}
 Group   3 Type H   : 5s2p1d contracted to 3s1p1d pattern {311/2/1}

Atom   0Mn   basis set group =>   1
Atom   1O    basis set group =>   2
Atom   2O    basis set group =>   2
Atom   3H    basis set group =>   3


           ************************************************************
           *        Program running with 5 parallel MPI-processes     *
           *              working on a common directory               *
           ************************************************************
------------------------------------------------------------------------------
                           ORCA GTO INTEGRAL CALCULATION
                           -- RI-GTO INTEGRALS CHOSEN --
------------------------------------------------------------------------------
------------------------------------------------------------------------------
                   ___                                                        
                  /   \      - P O W E R E D   B Y -                         
                 /     \                                                     
                 |  |  |   _    _      __       _____    __    __             
                 |  |  |  | |  | |    /  \     |  _  \  |  |  /  |          
                  \  \/   | |  | |   /    \    | | | |  |  | /  /          
                 / \  \   | |__| |  /  /\  \   | |_| |  |  |/  /          
                |  |  |   |  __  | /  /__\  \  |    /   |      \           
                |  |  |   | |  | | |   __   |  |    \   |  |\   \          
                \     /   | |  | | |  |  |  |  | |\  \  |  | \   \       
                 \___/    |_|  |_| |__|  |__|  |_| \__\ |__|  \__/        
                                                                              
                      - O R C A' S   B I G   F R I E N D -                    
                                      &                                       
                       - I N T E G R A L  F E E D E R -                       
                                                                              
 v1 FN, 2020, v2 2021                                                         
------------------------------------------------------------------------------


Reading SHARK input file MnOOH_COMPLETE.SHARKINP.tmp ... ok
----------------------
SHARK INTEGRAL PACKAGE
----------------------

Number of atoms                             ...      4
Number of basis functions                   ...     64
Number of shells                            ...     26
Maximum angular momentum                    ...      3
Integral batch strategy                     ... SHARK/LIBINT Hybrid
RI-J (if used) integral strategy            ... SPLIT-RIJ (Revised 2003 algorithm where possible)
Printlevel                                  ...      1
Contraction scheme used                     ... SEGMENTED contraction
Coulomb Range Separation                    ... NOT USED
Exchange Range Separation                   ... NOT USED
Finite Nucleus Model                        ... NOT USED
Auxiliary Coulomb fitting basis             ... AVAILABLE
   # of basis functions in Aux-J            ...    198
   # of shells in Aux-J                     ...     58
   Maximum angular momentum in Aux-J        ...      4
Auxiliary J/K fitting basis                 ... NOT available
Auxiliary Correlation fitting basis         ... NOT available
Auxiliary 'external' fitting basis          ... NOT available
Integral threshold                          ...     2.500000e-11
Primitive cut-off                           ...     2.500000e-12
Primitive pair pre-selection threshold      ...     2.500000e-12

Calculating pre-screening integrals         ... done (  0.0 sec) Dimension = 26
Organizing shell pair data                  ... done (  0.0 sec)
Shell pair information
Total number of shell pairs                 ...       351
Shell pairs after pre-screening             ...       337
Total number of primitive shell pairs       ...      1780
Primitive shell pairs kept                  ...      1387
          la=0 lb=0:     84 shell pairs
          la=1 lb=0:     99 shell pairs
          la=1 lb=1:     36 shell pairs
          la=2 lb=0:     50 shell pairs
          la=2 lb=1:     32 shell pairs
          la=2 lb=2:     10 shell pairs
          la=3 lb=0:     13 shell pairs
          la=3 lb=1:      8 shell pairs
          la=3 lb=2:      4 shell pairs
          la=3 lb=3:      1 shell pairs

Calculating one electron integrals          ... done (  0.0 sec)
Calculating RI/J V-Matrix + Cholesky decomp.... done (  0.0 sec)
Calculating Nuclear repulsion               ... done (  0.0 sec) ENN=    143.235526639703 Eh

SHARK setup successfully completed in   0.1 seconds

Maximum memory used throughout the entire GTOINT-calculation: 14.1 MB


           ************************************************************
           *        Program running with 5 parallel MPI-processes     *
           *              working on a common directory               *
           ************************************************************
-------------------------------------------------------------------------------
                                 ORCA SCF
-------------------------------------------------------------------------------

------------
SCF SETTINGS
------------
Hamiltonian:
 Density Functional     Method          .... DFT(GTOs)
 Exchange Functional    Exchange        .... Slater
   X-Alpha parameter    XAlpha          ....  0.666667
 Correlation Functional Correlation     .... VWN-5
 Gradients option       PostSCFGGA      .... off
   Density functional embedding theory  .... OFF
 RI-approximation to the Coulomb term is turned on
   Number of AuxJ basis functions       .... 198


General Settings:
 Integral files         IntName         .... MnOOH_COMPLETE
 Hartree-Fock type      HFTyp           .... RHF
 Total Charge           Charge          ....    0
 Multiplicity           Mult            ....    1
 Number of Electrons    NEL             ....   42
 Basis Dimension        Dim             ....   64
 Nuclear Repulsion      ENuc            ....    143.2355266397 Eh

Convergence Acceleration:
 DIIS                   CNVDIIS         .... on
   Start iteration      DIISMaxIt       ....    12
   Startup error        DIISStart       ....  0.200000
   # of expansion vecs  DIISMaxEq       ....     5
   Bias factor          DIISBfac        ....   1.050
   Max. coefficient     DIISMaxC        ....  10.000
 Trust-Rad. Augm. Hess. CNVTRAH         .... auto
   Auto Start mean grad. ratio tolernc. ....  1.125000
   Auto Start start iteration           ....    20
   Auto Start num. interpolation iter.  ....    10
   Max. Number of Micro iterations      ....    16
   Max. Number of Macro iterations      .... Maxiter - #DIIS iter
   Number of Davidson start vectors     ....     2
   Converg. threshold I  (grad. norm)   ....   1.000e-05
   Converg. threshold II (energy diff.) ....   1.000e-08
   Grad. Scal. Fac. for Micro threshold ....   0.100
   Minimum threshold for Micro iter.    ....   0.010
   NR start threshold (gradient norm)   ....   0.001
   Initial trust radius                 ....   0.400
   Minimum AH scaling param. (alpha)    ....   1.000
   Maximum AH scaling param. (alpha)    .... 1000.000
   Orbital update algorithm             .... Taylor
   White noise on init. David. guess    .... on
   Maximum white noise                  ....   0.010
   Quad. conv. algorithm                .... NR
 SOSCF                  CNVSOSCF        .... off
 Level Shifting         CNVShift        .... on
   Level shift para.    LevelShift      ....    0.2500
   Turn off err/grad.   ShiftErr        ....    0.0010
 Zerner damping         CNVZerner       .... off
 Static damping         CNVDamp         .... on
   Fraction old density DampFac         ....    0.7000
   Max. Damping (<1)    DampMax         ....    0.9800
   Min. Damping (>=0)   DampMin         ....    0.0000
   Turn off err/grad.   DampErr         ....    0.1000
 Fernandez-Rico         CNVRico         .... off

SCF Procedure:
 Maximum # iterations   MaxIter         ....   500
 SCF integral mode      SCFMode         .... Direct
   Integral package                     .... SHARK and LIBINT hybrid scheme
 Reset frequency        DirectResetFreq ....    20
 Integral Threshold     Thresh          ....  2.500e-11 Eh
 Primitive CutOff       TCut            ....  2.500e-12 Eh

Convergence Tolerance:
 Convergence Check Mode ConvCheckMode   .... Total+1el-Energy
 Convergence forced     ConvForced      .... 0
 Energy Change          TolE            ....  1.000e-08 Eh
 1-El. energy change                    ....  1.000e-05 Eh
 DIIS Error             TolErr          ....  5.000e-07


Diagonalization of the overlap matrix:
Smallest eigenvalue                        ... 2.241e-02
Time for diagonalization                   ...    0.001 sec
Threshold for overlap eigenvalues          ... 1.000e-08
Number of eigenvalues below threshold      ... 0
Time for construction of square roots      ...    0.005 sec
Total time needed                          ...    0.006 sec

Time for model grid setup =    0.034 sec

------------------------------
INITIAL GUESS: MODEL POTENTIAL
------------------------------
Loading Hartree-Fock densities                     ... done
Calculating cut-offs                               ... done
Initializing the effective Hamiltonian             ... done
Setting up the integral package (SHARK)            ... done
Starting the Coulomb interaction                   ... done (   0.0 sec)
Reading the grid                                   ... done
Mapping shells                                     ... done
Starting the XC term evaluation                    ... done (   0.0 sec)
  promolecular density results
     # of electrons  =     42.000512560
     EX              =    -62.501724961
     EC              =     -3.272349752
     EX+EC           =    -65.774074713
Transforming the Hamiltonian                       ... done (   0.0 sec)
Diagonalizing the Hamiltonian                      ... done (   0.0 sec)
Back transforming the eigenvectors                 ... done (   0.0 sec)
Now organizing SCF variables                       ... done
                      ------------------
                      INITIAL GUESS DONE (   0.1 sec)
                      ------------------
-------------------
DFT GRID GENERATION
-------------------

General Integration Accuracy     IntAcc      ... 4.388
Radial Grid Type                 RadialGrid  ... OptM3 with GC (2021)
Angular Grid (max. ang.)         AngularGrid ... 4 (Lebedev-302)
Angular grid pruning method      GridPruning ... 4 (adaptive)
Weight generation scheme         WeightScheme... Becke
Basis function cutoff            BFCut       ... 1.0000e-11
Integration weight cutoff        WCut        ... 1.0000e-14
Angular grids for H and He will be reduced by one unit
Partially contracted basis set               ... off
Rotationally invariant grid construction     ... off

Total number of grid points                  ...    26842
Total number of batches                      ...      421
Average number of points per batch           ...       63
Average number of grid points per atom       ...     6711
Time for grid setup =    0.115 sec

--------------
SCF ITERATIONS
--------------
ITER       Energy         Delta-E        Max-DP      RMS-DP      [F,P]     Damp
               ***  Starting incremental Fock matrix formation  ***
  0  -1297.8757688956   0.000000000000 0.32071490  0.01349309  0.4026084 0.7000
  1  -1297.7713271203   0.104441775322 0.30822683  0.01071950  0.3610823 0.7000
                               ***Turning on DIIS***
  2  -1298.0408101497  -0.269483029405 0.67545612  0.02227077  0.0817940 0.0000
  3  -1297.8889477250   0.151862424709 0.03560326  0.00157479  0.4317579 0.7000
  4  -1297.9350871917  -0.046139466752 0.04564083  0.00200170  0.3979457 0.7000
  5  -1297.9835222222  -0.048435030440 0.04427736  0.00191123  0.3554993 0.7000
  6  -1298.0222021678  -0.038679945630 0.03824975  0.00158727  0.3239076 0.7000
  7  -1298.0514196838  -0.029217516011 0.13755504  0.00737323  0.2991657 0.7000
  8  -1298.1831902182  -0.131770534373 0.19282546  0.01065164  0.0863901 0.0000
  9  -1297.8684892353   0.314700982930 0.02314658  0.00118084  0.6345417 0.7000
 10  -1297.9454176328  -0.076928397535 0.02970865  0.00144841  0.5664283 0.7000
 11  -1298.0294747044  -0.084057071637 0.03226749  0.00141536  0.4792768 0.7000
 12  -1298.1022147016  -0.072739997217 0.04363239  0.00178181  0.3877935 0.7000
 13  -1298.1750302304  -0.072815528750 0.06471198  0.00234182  0.2642645 0.7000
 14  -1298.2267815534  -0.051751323034 0.03635020  0.00150394  0.1259982 0.7000
 15  -1298.2453145019  -0.018532948461 0.06473925  0.00310782  0.0435901 0.0000
 16  -1298.2438970201   0.001417481821 0.01357195  0.00071358  0.0976482 0.0000
 17  -1298.2510164554  -0.007119435299 0.00958055  0.00055711  0.0659236 0.0000
 18  -1298.2550920414  -0.004075586059 0.00619275  0.00039683  0.0449432 0.0000
 19  -1298.2569840413  -0.001891999861 0.00479663  0.00025296  0.0271636 0.0000
               *** Restarting incremental Fock matrix formation ***
                                   *** Resetting DIIS ***
 20  -1298.2576625430  -0.000678501710 0.02848992  0.00131504  0.0166200 0.0000
 21  -1298.2535755575   0.004086985447 0.01033097  0.00050289  0.0659343 0.0000
 22  -1298.2563278979  -0.002752340397 0.00508072  0.00025055  0.0367274 0.0000
 23  -1298.2572883253  -0.000960427308 0.00342418  0.00016825  0.0238909 0.0000
 24  -1298.2577102154  -0.000421890177 0.00277972  0.00016839  0.0167265 0.0000
 25  -1298.2579749061  -0.000264690710 0.00416583  0.00017906  0.0113531 0.0000
 26  -1298.2581334992  -0.000158593093 0.00215485  0.00009400  0.0023838 0.0000
 27  -1298.2581467119  -0.000013212652 0.00189913  0.00007390  0.0020438 0.0000
 28  -1298.2581556923  -0.000008980457 1.09019302  0.03526098  0.0004522 0.0000
 29  -1298.0424581924   0.215697499937 0.00000423  0.00000018  0.4243193 0.7000

 WARNING: the maximum gradient error descreased on average only by a factor   1.0
          during the last 20 iterations

                      *** Initiating the TRAH-SCF procedure ***


TRAH GRID
---------

General Integration Accuracy     IntAcc      ... 3.467
Radial Grid Type                 RadialGrid  ... OptM3 with GC (2021)
Angular Grid (max. ang.)         AngularGrid ... 1 (Lebedev-50)
Angular grid pruning method      GridPruning ... 4 (adaptive)
Weight generation scheme         WeightScheme... Becke
Basis function cutoff            BFCut       ... 1.0000e-11
Integration weight cutoff        WCut        ... 1.0000e-14
Angular grids for H and He will be reduced by one unit
Partially contracted basis set               ... off
Rotationally invariant grid construction     ... off

Total number of grid points                  ...     6681
Total number of batches                      ...      106
Average number of points per batch           ...       63
Average number of grid points per atom       ...     1670

 --------------------------------------------------------------------------------------------
   Iter.        energy            ||Error||_2        Shift      TRadius  Mac/Mic        Rej.
 --------------------------------------------------------------------------------------------
WARNING: 16 diagonal Hessian elements are negative!
    0      -1298.042426181620     2.400364e+00                     0.400 (TRAH MAcro)   No
WARNING : negative HOMO - LUMO gap : -0.355902
    0     dE    -1.874712e-01     1.428636e+00    -3.6640e-01      0.153 (TRAH MIcro)
    0     dE    -2.130700e-01     2.651079e-01    -4.1142e-01      0.189 (TRAH MIcro)
    0     dE    -2.162584e-01     1.514943e-01    -4.1670e-01      0.195 (TRAH MIcro)
    0     dE    -2.597997e-01     1.296419e+00    -5.4871e-01      0.400 (TRAH MIcro)
    0     dE    -2.170111e-01     1.376232e-01    -1.4898e+00      0.187 (TRAH MIcro)
    0     dE    -2.179316e-01     3.849039e-02    -1.4926e+00      0.189 (TRAH MIcro)
    0     dE    -2.222012e-01     3.067803e-02    -1.4935e+00      0.203 (TRAH MIcro)
    0     dE    -2.236747e-01     1.654532e-02    -1.4939e+00      0.208 (TRAH MIcro)
    0     dE    -2.239769e-01     1.368431e-02    -1.4939e+00      0.209 (TRAH MIcro)
    0     dE    -2.238778e-01     8.616247e-03    -1.4939e+00      0.209 (TRAH MIcro)
WARNING: 6 diagonal Hessian elements are negative!
    1      -1298.256823679417     2.499784e-01                     0.480 (TRAH MAcro)   No
WARNING : negative HOMO - LUMO gap : -0.079568
    1     dE    -3.066510e-03     6.942979e-01    -6.1293e-03      0.025 (TRAH MIcro)
    1     dE    -6.173114e-03     9.852768e-02    -1.2255e-02      0.086 (TRAH MIcro)
    1     dE    -6.515473e-03     8.214497e-02    -1.2912e-02      0.096 (TRAH MIcro)
    1     dE    -7.116475e-03     9.535016e-02    -1.4033e-02      0.119 (TRAH MIcro)
    1     dE    -1.488668e-02     1.515686e+00    -3.5709e-02      0.480 (TRAH MIcro)
    1     dE    -2.991268e-02     2.434347e-01    -1.7841e-01      0.479 (TRAH MIcro)
    1     dE    -3.031303e-02     5.408555e-02    -1.8129e-01      0.480 (TRAH MIcro)
    1     dE    -3.033449e-02     1.624317e-02    -1.8139e-01      0.480 (TRAH MIcro)
    1     dE    -3.035428e-02     1.028643e-02    -1.8166e-01      0.480 (TRAH MIcro)
    1     dE    -3.036003e-02     5.542502e-03    -1.8170e-01      0.480 (TRAH MIcro)
WARNING: 4 diagonal Hessian elements are negative!
    2      -1298.263650611966     4.524719e-01                     0.336 (TRAH MAcro)   No
WARNING : negative HOMO - LUMO gap : -0.031591
    2     dE    -7.274184e-03     4.509994e-01    -1.4533e-02      0.032 (TRAH MIcro)
    2     dE    -9.278019e-03     3.652743e-01    -1.8496e-02      0.057 (TRAH MIcro)
    2     dE    -1.005454e-02     3.244961e-01    -1.9999e-02      0.074 (TRAH MIcro)
    2     dE    -1.047348e-02     2.975166e-01    -2.0788e-02      0.087 (TRAH MIcro)
    2     dE    -1.117843e-02     2.139128e-01    -2.2029e-02      0.122 (TRAH MIcro)
    2     dE    -1.242815e-02     5.852369e-02    -2.3879e-02      0.202 (TRAH MIcro)
    2     dE    -1.258429e-02     2.140720e-02    -2.4090e-02      0.212 (TRAH MIcro)
    2     dE    -1.262479e-02     5.931570e-03    -2.4138e-02      0.215 (TRAH MIcro)
WARNING: 3 diagonal Hessian elements are negative!
    3      -1298.276259624564     4.722980e-02                     0.403 (TRAH MAcro)   No
WARNING : negative HOMO - LUMO gap : -0.034219
    3     dE    -6.990687e-05     1.163909e-01    -1.3981e-04      0.004 (TRAH MIcro)
    3     dE    -1.627394e-04     1.091585e-01    -3.2526e-04      0.026 (TRAH MIcro)
    3     dE    -2.275644e-04     4.739947e-02    -4.5439e-04      0.040 (TRAH MIcro)
    3     dE    -2.516067e-04     6.251552e-02    -5.0268e-04      0.033 (TRAH MIcro)
    3     dE    -2.614953e-04     4.974819e-02    -5.2252e-04      0.030 (TRAH MIcro)
    3     dE    -2.721021e-04     4.146631e-02    -5.4369e-04      0.031 (TRAH MIcro)
    3     dE    -3.081699e-04     1.820895e-02    -6.1497e-04      0.047 (TRAH MIcro)
    3     dE    -3.197338e-04     3.948760e-03    -6.3765e-04      0.053 (TRAH MIcro)
WARNING: 3 diagonal Hessian elements are negative!
    4      -1298.276578074935     4.964031e-03                     0.484 (TRAH MAcro)   No
WARNING : negative HOMO - LUMO gap : -0.034717
    4     dE    -1.058273e-07     1.165285e-02    -2.1166e-07      0.000 (TRAH MIcro)
    4     dE    -1.055232e-06     5.876434e-03    -2.1105e-06      0.002 (TRAH MIcro)
    4     dE    -1.559609e-06     3.120191e-03    -3.1192e-06      0.003 (TRAH MIcro)
    4     dE    -1.747860e-06     1.365796e-03    -3.4957e-06      0.002 (TRAH MIcro)
    4     dE    -1.838483e-06     6.119630e-04    -3.6769e-06      0.002 (TRAH MIcro)
    4     dE    -1.858073e-06     2.681228e-04    -3.7161e-06      0.002 (TRAH MIcro)
WARNING: 3 diagonal Hessian elements are negative!
    5      -1298.276579933496     2.678938e-04                           (NR   MAcro)
WARNING : negative HOMO - LUMO gap : -0.034796
    5     dE    -9.255902e-09     2.287458e-04                           (NR   MIcro)
    5     dE    -2.002816e-08     3.972778e-04                           (NR   MIcro)
    5     dE    -5.583590e-08     7.925799e-04                           (NR   MIcro)
    5     dE    -1.107042e-07     1.062862e-03                           (NR   MIcro)
    5     dE    -2.136517e-07     1.303611e-03                           (NR   MIcro)
    5     dE    -3.344267e-07     9.293420e-04                           (NR   MIcro)
    5     dE    -3.795822e-07     5.307018e-04                           (NR   MIcro)
    5     dE    -4.242924e-07     6.958547e-04                           (NR   MIcro)
    5     dE    -5.344824e-07     1.943287e-03                           (NR   MIcro)
    5     dE    -8.550135e-07     1.510172e-03                           (NR   MIcro)
    5     dE    -9.016412e-07     2.534194e-04                           (NR   MIcro)
    5     dE    -9.062179e-07     1.376280e-04                           (NR   MIcro)
    5     dE    -9.135697e-07     1.993725e-04                           (NR   MIcro)
    5     dE    -9.163471e-07     6.365523e-05                           (NR   MIcro)
    5     dE    -9.164153e-07     1.495018e-05                           (NR   MIcro)
WARNING: 3 diagonal Hessian elements are negative!
    6      -1298.276580792717     3.868181e-04                           (NR   MAcro)
WARNING : negative HOMO - LUMO gap : -0.034789
    6     dE    -5.382403e-09     1.474942e-04                           (NR   MIcro)
    6     dE    -6.220731e-09     8.904997e-05                           (NR   MIcro)
    6     dE    -6.664413e-09     4.816711e-05                           (NR   MIcro)
    6     dE    -6.904978e-09     3.466611e-05                           (NR   MIcro)
    6     dE    -7.136711e-09     4.441989e-05                           (NR   MIcro)
    6     dE    -7.624273e-09     4.598602e-05                           (NR   MIcro)
    6     dE    -7.719525e-09     3.730817e-05                           (NR   MIcro)
    6     dE    -7.837779e-09     1.444533e-05                           (NR   MIcro)
    6     dE    -7.876758e-09     1.122598e-05                           (NR   MIcro)
    6     dE    -8.014430e-09     4.899497e-05                           (NR   MIcro)
    6     dE    -9.526878e-09     7.544504e-05                           (NR   MIcro)
    6     dE    -9.922476e-09     1.676056e-05                           (NR   MIcro)
    6     dE    -9.964898e-09     1.305629e-05                           (NR   MIcro)
    6     dE    -1.008458e-08     2.334686e-05                           (NR   MIcro)
    6     dE    -1.012674e-08     4.076279e-06                           (NR   MIcro)
WARNING: 3 diagonal Hessian elements are negative!
    7      -1298.276580802716     4.517892e-06                           (NR   MAcro)
WARNING : negative HOMO - LUMO gap : -0.034791

               *****************************************************
               *                     SUCCESS                       *
               *           SCF CONVERGED AFTER 110 CYCLES          *
               *****************************************************


----------------
TOTAL SCF ENERGY
----------------

Total Energy       :        -1298.27658080 Eh          -35327.90180 eV

Components:
Nuclear Repulsion  :          143.23552664 Eh            3897.63683 eV
Electronic Energy  :        -1441.51210744 Eh          -39225.53863 eV
One Electron Energy:        -2078.72963656 Eh          -56565.10913 eV
Two Electron Energy:          637.21752912 Eh           17339.57049 eV

Virial components:
Potential Energy   :        -2595.88615471 Eh          -70637.65342 eV
Kinetic Energy     :         1297.60957391 Eh           35309.75162 eV
Virial Ratio       :            2.00051403


DFT components:
N(Alpha)           :       20.999944155526 electrons
N(Beta)            :       20.999944155526 electrons
N(Total)           :       41.999888311052 electrons
E(X)               :      -62.690096906958 Eh       
E(C)               :       -3.292978059737 Eh       
E(XC)              :      -65.983074966695 Eh       
DFET-embed. en.    :        0.000000000000 Eh       

---------------
SCF CONVERGENCE
---------------

  Last Energy change         ...   -9.9990e-09  Tolerance :   1.0000e-08
  Last Orbital Gradient      ...    4.5179e-06  Tolerance :   1.0000e-05
  Last Orbital Rotation      ...    9.6547e-04

             **** THE GBW FILE WAS UPDATED (MnOOH_COMPLETE.gbw) ****
             **** DENSITY MnOOH_COMPLETE.scfp WAS UPDATED ****
             **** ENERGY FILE WAS UPDATED (MnOOH_COMPLETE.en.tmp) ****
             **** THE GBW FILE WAS UPDATED (MnOOH_COMPLETE.gbw) ****
             **** DENSITY MnOOH_COMPLETE.scfp WAS UPDATED ****
----------------
ORBITAL ENERGIES
----------------

  NO   OCC          E(Eh)            E(eV) 
   0   2.0000    -233.640159     -6357.6719 
   1   2.0000     -26.841559      -730.3960 
   2   2.0000     -23.074306      -627.8838 
   3   2.0000     -23.051467      -627.2623 
   4   2.0000     -23.033564      -626.7751 
   5   2.0000     -18.644398      -507.3399 
   6   2.0000     -18.628521      -506.9078 
   7   2.0000      -3.018644       -82.1415 
   8   2.0000      -1.979083       -53.8536 
   9   2.0000      -1.939089       -52.7653 
  10   2.0000      -1.887925       -51.3730 
  11   2.0000      -0.872805       -23.7502 
  12   2.0000      -0.809246       -22.0207 
  13   2.0000      -0.433184       -11.7875 
  14   2.0000      -0.354087        -9.6352 
  15   2.0000      -0.337253        -9.1771 
  16   2.0000      -0.314008        -8.5446 
  17   2.0000      -0.289062        -7.8658 
  18   2.0000      -0.285194        -7.7605 
  19   2.0000      -0.179033        -4.8717 
  20   2.0000      -0.167528        -4.5587 
  21   0.0000      -0.202319        -5.5054 
  22   0.0000      -0.170509        -4.6398 
  23   0.0000      -0.158828        -4.3219 
  24   0.0000      -0.020281        -0.5519 
  25   0.0000       0.046554         1.2668 
  26   0.0000       0.053160         1.4466 
  27   0.0000       0.076053         2.0695 
  28   0.0000       0.137099         3.7307 
  29   0.0000       0.267003         7.2655 
  30   0.0000       0.539352        14.6765 
  31   0.0000       0.769988        20.9524 
  32   0.0000       0.782372        21.2894 
  33   0.0000       0.829179        22.5631 
  34   0.0000       0.833962        22.6933 
  35   0.0000       0.836490        22.7620 
  36   0.0000       0.908608        24.7245 
  37   0.0000       0.916871        24.9493 
  38   0.0000       0.943939        25.6859 
  39   0.0000       1.003551        27.3080 
  40   0.0000       1.019968        27.7547 
  41   0.0000       1.116353        30.3775 
  42   0.0000       1.306499        35.5516 
  43   0.0000       1.366397        37.1816 
  44   0.0000       1.431871        38.9632 
  45   0.0000       1.528474        41.5919 
  46   0.0000       2.063425        56.1486 
  47   0.0000       2.416226        65.7489 
  48   0.0000       2.457183        66.8634 
  49   0.0000       2.519901        68.5700 
  50   0.0000       2.520282        68.5804 
  51   0.0000       2.547269        69.3147 
  52   0.0000       2.695832        73.3573 
  53   0.0000       2.816130        76.6308 
  54   0.0000       2.829246        76.9877 
  55   0.0000       2.923356        79.5486 
  56   0.0000       3.293389        89.6177 
  57   0.0000       3.299373        89.7805 
  58   0.0000       3.321476        90.3820 
  59   0.0000       3.321820        90.3913 
  60   0.0000       3.404852        92.6507 
  61   0.0000       3.427845        93.2764 
  62   0.0000       3.522924        95.8636 
  63   0.0000       3.644594        99.1745 

                    ********************************
                    * MULLIKEN POPULATION ANALYSIS *
                    ********************************

-----------------------
MULLIKEN ATOMIC CHARGES
-----------------------
   0 Mn:    0.573399
   1 O :   -0.361962
   2 O :   -0.431749
   3 H :    0.220312
Sum of atomic charges:   -0.0000000

--------------------------------
MULLIKEN REDUCED ORBITAL CHARGES
--------------------------------
  0 Mns       :     6.670849  s :     6.670849
      pz      :     4.143698  p :    12.341019
      px      :     4.105454
      py      :     4.091866
      dz2     :     0.506190  d :     5.409554
      dxz     :     1.100263
      dyz     :     1.673168
      dx2y2   :     0.759009
      dxy     :     1.370923
      f0      :     0.000387  f :     0.005180
      f+1     :     0.000856
      f-1     :     0.000358
      f+2     :     0.000140
      f-2     :     0.000547
      f+3     :     0.000908
      f-3     :     0.001984
  1 O s       :     3.925251  s :     3.925251
      pz      :     1.417387  p :     4.428270
      px      :     1.518761
      py      :     1.492122
      dz2     :     0.000847  d :     0.008441
      dxz     :     0.001700
      dyz     :     0.000744
      dx2y2   :     0.002325
      dxy     :     0.002826
  2 O s       :     3.795318  s :     3.795318
      pz      :     1.645262  p :     4.628942
      px      :     1.445378
      py      :     1.538302
      dz2     :     0.001188  d :     0.007489
      dxz     :     0.000139
      dyz     :     0.001138
      dx2y2   :     0.001146
      dxy     :     0.003878
  3 H s       :     0.716005  s :     0.716005
      pz      :     0.015427  p :     0.063683
      px      :     0.022604
      py      :     0.025652


                     *******************************
                     * LOEWDIN POPULATION ANALYSIS *
                     *******************************

----------------------
LOEWDIN ATOMIC CHARGES
----------------------
   0 Mn:    0.321591
   1 O :   -0.173610
   2 O :   -0.243609
   3 H :    0.095628

-------------------------------
LOEWDIN REDUCED ORBITAL CHARGES
-------------------------------
  0 Mns       :     6.601030  s :     6.601030
      pz      :     4.151337  p :    12.506632
      px      :     4.210930
      py      :     4.144365
      dz2     :     0.514096  d :     5.562165
      dxz     :     1.115811
      dyz     :     1.679048
      dx2y2   :     0.792158
      dxy     :     1.461051
      f0      :     0.000554  f :     0.008582
      f+1     :     0.001595
      f-1     :     0.000646
      f+2     :     0.000195
      f-2     :     0.000764
      f+3     :     0.001182
      f-3     :     0.003646
  1 O s       :     3.724359  s :     3.724359
      pz      :     1.399366  p :     4.436360
      px      :     1.547306
      py      :     1.489688
      dz2     :     0.001828  d :     0.012891
      dxz     :     0.001827
      dyz     :     0.000835
      dx2y2   :     0.002968
      dxy     :     0.005433
  2 O s       :     3.551432  s :     3.551432
      pz      :     1.609388  p :     4.680440
      px      :     1.496503
      py      :     1.574549
      dz2     :     0.002393  d :     0.011737
      dxz     :     0.000332
      dyz     :     0.000721
      dx2y2   :     0.000802
      dxy     :     0.007487
  3 H s       :     0.725845  s :     0.725845
      pz      :     0.039821  p :     0.178526
      px      :     0.066815
      py      :     0.071891


                      *****************************
                      * MAYER POPULATION ANALYSIS *
                      *****************************

  NA   - Mulliken gross atomic population
  ZA   - Total nuclear charge
  QA   - Mulliken gross atomic charge
  VA   - Mayer's total valence
  BVA  - Mayer's bonded valence
  FA   - Mayer's free valence

  ATOM       NA         ZA         QA         VA         BVA        FA
  0 Mn    24.4266    25.0000     0.5734     3.4165     3.4165    -0.0000
  1 O      8.3620     8.0000    -0.3620     2.4096     2.4096    -0.0000
  2 O      8.4317     8.0000    -0.4317     2.2118     2.2118    -0.0000
  3 H      0.7797     1.0000     0.2203     0.9809     0.9809     0.0000

  Mayer bond orders larger than 0.100000
B(  0-Mn,  1-O ) :   2.2348 B(  0-Mn,  2-O ) :   1.1288 B(  1-O ,  2-O ) :   0.1649 
B(  2-O ,  3-H ) :   0.9181 

-------
TIMINGS
-------

Total SCF time: 0 days 0 hours 0 min 5 sec 

Total time                  ....       5.088 sec
Sum of individual times     ....       3.062 sec  ( 60.2%)

Fock matrix formation       ....       2.479 sec  ( 48.7%)
  Split-RI-J                ....       0.840 sec  ( 33.9% of F)
  XC integration            ....       1.121 sec  ( 45.2% of F)
    Basis function eval.    ....       0.129 sec  ( 11.5% of XC)
    Density eval.           ....       0.100 sec  (  8.9% of XC)
    XC-Functional eval.     ....       0.040 sec  (  3.6% of XC)
    XC-Potential eval.      ....       0.074 sec  (  6.6% of XC)
Diagonalization             ....       0.127 sec  (  2.5%)
Density matrix formation    ....       0.013 sec  (  0.3%)
Population analysis         ....       0.031 sec  (  0.6%)
Initial guess               ....       0.020 sec  (  0.4%)
Orbital Transformation      ....       0.109 sec  (  2.1%)
Orbital Orthonormalization  ....       0.000 sec  (  0.0%)
DIIS solution               ....       0.134 sec  (  2.6%)
Grid generation             ....       0.149 sec  (  2.9%)

Maximum memory used throughout the entire SCF-calculation: 9.5 MB

-------------------------   --------------------
FINAL SINGLE POINT ENERGY     -1298.276580802716
-------------------------   --------------------



           ************************************************************
           *        Program running with 5 parallel MPI-processes     *
           *              working on a common directory               *
           ************************************************************
------------------------------------------------------------------------------
                         ORCA SCF GRADIENT CALCULATION
------------------------------------------------------------------------------

Gradient of the Kohn-Sham DFT energy:
Kohn-Sham wavefunction type      ... RKS
Hartree-Fock exchange scaling    ...    0.000
Number of operators              ...    1
Number of atoms                  ...    4
Basis set dimensions             ...   64
Integral neglect threshold       ... 2.5e-11
Integral primitive cutoff        ... 2.5e-12
SHARK Integral package           ... ON

Nuc. rep. gradient       (SHARK) ... done (  0.0 sec)
HCore & Overlap gradient (SHARK) ... done (  0.0 sec)
RI-J gradient            (SHARK) ... done (  0.1 sec)
Exchange-correlation gradient    ... done

------------------
CARTESIAN GRADIENT
------------------

   1   Mn  :    0.040904285    0.014117481    0.000000134
   2   O   :   -0.076364892   -0.042766015   -0.000000076
   3   O   :    0.036212247    0.035571023   -0.000000236
   4   H   :   -0.000751640   -0.006922489    0.000000179

Difference to translation invariance:
           :    0.0000000001   -0.0000000001    0.0000000000

Difference to rotation invariance:
           :   -0.0000002940   -0.0000001265   -0.0015156456

Norm of the cartesian gradient     ...    0.1102637878
RMS gradient                       ...    0.0318304138
MAX gradient                       ...    0.0763648923

-------
TIMINGS
-------

Total SCF gradient time            ...        0.163 sec

One electron gradient       ....       0.004 sec  (  2.5%)
RI-J Coulomb gradient       ....       0.088 sec  ( 54.0%)
XC gradient                 ....       0.035 sec  ( 21.5%)

Maximum memory used throughout the entire SCFGRAD-calculation: 7.3 MB
------------------------------------------------------------------------------
                         ORCA GEOMETRY RELAXATION STEP
------------------------------------------------------------------------------

Reading the OPT-File                    .... done
Getting information on internals        .... done
Copying old internal coords+grads       .... done
Making the new internal coordinates     .... (new redundants).... done
Validating the new internal coordinates .... (new redundants).... done
Calculating the B-matrix                .... done
Calculating the G,G- and P matrices     .... done
Transforming gradient to internals      .... done
Projecting the internal gradient        .... done
Number of atoms                         ....   4
Number of internal coordinates          ....   6
Current Energy                          .... -1298.276580803 Eh
Current gradient norm                   ....     0.110263788 Eh/bohr
Maximum allowed component of the step   ....  0.300
Current trust radius                    ....  0.300
Evaluating the initial hessian          ....  (Almloef) done
Projecting the Hessian                  .... done
Forming the augmented Hessian           .... done
Diagonalizing the augmented Hessian     .... done
Last element of RFO vector              ....  0.998069489
Lowest eigenvalues of augmented Hessian:
 -0.005595817  0.451210571  0.465286107  0.785620019  0.785764902
Length of the computed step             ....  0.062227249
The final length of the internal step   ....  0.062227249
Converting the step to cartesian space:
 Initial RMS(Int)=    0.0254041681
Transforming coordinates:
 Iter   0:  RMS(Cart)=    0.0173979872 RMS(Int)=    0.0253882750
 Iter   1:  RMS(Cart)=    0.0001174895 RMS(Int)=    0.0001399767
 Iter   2:  RMS(Cart)=    0.0000013056 RMS(Int)=    0.0000016917
 Iter   3:  RMS(Cart)=    0.0000000165 RMS(Int)=    0.0000000239
done
Storing new coordinates                 .... done

                                .--------------------.
          ----------------------|Geometry convergence|-------------------------
          Item                value                   Tolerance       Converged
          ---------------------------------------------------------------------
          RMS gradient        0.0406906654            0.0005000000      NO
          MAX gradient        0.0874678862            0.0020000000      NO
          RMS step            0.0254041681            0.0070000000      NO
          MAX step            0.0406145143            0.0100000000      NO
          ........................................................
          Max(Bonds)      0.0215      Max(Angles)    1.27
          Max(Dihed)        0.00      Max(Improp)    0.00
          ---------------------------------------------------------------------

The optimization has not yet converged - more geometry cycles are needed


    ---------------------------------------------------------------------------
                         Redundant Internal Coordinates
                            (Angstroem and degrees)

        Definition                    Value    dE/dq     Step     New-Value
    ----------------------------------------------------------------------------
     1. B(O   1,Mn  0)                1.6378  0.087468 -0.0203    1.6176   
     2. B(O   2,Mn  0)                1.8339  0.045256 -0.0215    1.8124   
     3. B(H   3,O   2)                0.9903  0.004151 -0.0047    0.9856   
     4. L(O   1,Mn  0,O   2,H   3, 2) 180.00 -0.000000    0.00    180.00   
     5. L(O   1,Mn  0,O   2,H   3, 1) 179.98  0.010745   -0.78    179.20   
     6. A(Mn  0,O   2,H   3)          104.49 -0.010147    1.27    105.77   
    ----------------------------------------------------------------------------

         *************************************************************
         *                GEOMETRY OPTIMIZATION CYCLE   2            *
         *************************************************************
---------------------------------
CARTESIAN COORDINATES (ANGSTROEM)
---------------------------------
  Mn    -1.673530    2.464594   -0.000000
  O     -3.044600    1.606312   -0.000001
  O     -0.124111    3.404845    0.000000
  H      0.596904    2.732879   -0.000000

----------------------------
CARTESIAN COORDINATES (A.U.)
----------------------------
  NO LB      ZA    FRAG     MASS         X           Y           Z
   0 Mn   25.0000    0    54.940   -3.162514    4.657408   -0.000000
   1 O     8.0000    0    15.999   -5.753460    3.035489   -0.000002
   2 O     8.0000    0    15.999   -0.234536    6.434224    0.000000
   3 H     1.0000    0     1.008    1.127984    5.164394   -0.000000

--------------------------------
INTERNAL COORDINATES (ANGSTROEM)
--------------------------------
 Mn     0   0   0     0.000000000000     0.00000000     0.00000000
 O      1   0   0     1.617553964288     0.00000000     0.00000000
 O      1   2   0     1.812393748163   179.20475446     0.00000000
 H      3   1   2     0.985596305180   105.76556032     0.00000000

---------------------------
INTERNAL COORDINATES (A.U.)
---------------------------
 Mn     0   0   0     0.000000000000     0.00000000     0.00000000
 O      1   0   0     3.056733999343     0.00000000     0.00000000
 O      1   2   0     3.424927830859   179.20475446     0.00000000
 H      3   1   2     1.862507095395   105.76556032     0.00000000



           ************************************************************
           *        Program running with 5 parallel MPI-processes     *
           *              working on a common directory               *
           ************************************************************
------------------------------------------------------------------------------
                   ___                                                        
                  /   \      - P O W E R E D   B Y -                         
                 /     \                                                     
                 |  |  |   _    _      __       _____    __    __             
                 |  |  |  | |  | |    /  \     |  _  \  |  |  /  |          
                  \  \/   | |  | |   /    \    | | | |  |  | /  /          
                 / \  \   | |__| |  /  /\  \   | |_| |  |  |/  /          
                |  |  |   |  __  | /  /__\  \  |    /   |      \           
                |  |  |   | |  | | |   __   |  |    \   |  |\   \          
                \     /   | |  | | |  |  |  |  | |\  \  |  | \   \       
                 \___/    |_|  |_| |__|  |__|  |_| \__\ |__|  \__/        
                                                                              
                      - O R C A' S   B I G   F R I E N D -                    
                                      &                                       
                       - I N T E G R A L  F E E D E R -                       
                                                                              
 v1 FN, 2020, v2 2021                                                         
------------------------------------------------------------------------------


Reading SHARK input file MnOOH_COMPLETE.SHARKINP.tmp ... ok
----------------------
SHARK INTEGRAL PACKAGE
----------------------

Number of atoms                             ...      4
Number of basis functions                   ...     64
Number of shells                            ...     26
Maximum angular momentum                    ...      3
Integral batch strategy                     ... SHARK/LIBINT Hybrid
RI-J (if used) integral strategy            ... SPLIT-RIJ (Revised 2003 algorithm where possible)
Printlevel                                  ...      1
Contraction scheme used                     ... SEGMENTED contraction
Coulomb Range Separation                    ... NOT USED
Exchange Range Separation                   ... NOT USED
Finite Nucleus Model                        ... NOT USED
Auxiliary Coulomb fitting basis             ... AVAILABLE
   # of basis functions in Aux-J            ...    198
   # of shells in Aux-J                     ...     58
   Maximum angular momentum in Aux-J        ...      4
Auxiliary J/K fitting basis                 ... NOT available
Auxiliary Correlation fitting basis         ... NOT available
Auxiliary 'external' fitting basis          ... NOT available
Integral threshold                          ...     2.500000e-11
Primitive cut-off                           ...     2.500000e-12
Primitive pair pre-selection threshold      ...     2.500000e-12

Calculating pre-screening integrals         ... done (  0.0 sec) Dimension = 26
Organizing shell pair data                  ... done (  0.0 sec)
Shell pair information
Total number of shell pairs                 ...       351
Shell pairs after pre-screening             ...       337
Total number of primitive shell pairs       ...      1780
Primitive shell pairs kept                  ...      1390
          la=0 lb=0:     84 shell pairs
          la=1 lb=0:     99 shell pairs
          la=1 lb=1:     36 shell pairs
          la=2 lb=0:     50 shell pairs
          la=2 lb=1:     32 shell pairs
          la=2 lb=2:     10 shell pairs
          la=3 lb=0:     13 shell pairs
          la=3 lb=1:      8 shell pairs
          la=3 lb=2:      4 shell pairs
          la=3 lb=3:      1 shell pairs

Calculating one electron integrals          ... done (  0.0 sec)
Calculating RI/J V-Matrix + Cholesky decomp.... done (  0.0 sec)
Calculating Nuclear repulsion               ... done (  0.0 sec) ENN=    144.891419321653 Eh

SHARK setup successfully completed in   0.1 seconds

Maximum memory used throughout the entire GTOINT-calculation: 14.1 MB


           ************************************************************
           *        Program running with 5 parallel MPI-processes     *
           *              working on a common directory               *
           ************************************************************

Diagonalization of the overlap matrix:
Smallest eigenvalue                        ... 2.185e-02
Time for diagonalization                   ...    0.001 sec
Threshold for overlap eigenvalues          ... 1.000e-08
Number of eigenvalues below threshold      ... 0
Time for construction of square roots      ...    0.004 sec
Total time needed                          ...    0.005 sec

-------------------
DFT GRID GENERATION
-------------------

General Integration Accuracy     IntAcc      ... 4.388
Radial Grid Type                 RadialGrid  ... OptM3 with GC (2021)
Angular Grid (max. ang.)         AngularGrid ... 4 (Lebedev-302)
Angular grid pruning method      GridPruning ... 4 (adaptive)
Weight generation scheme         WeightScheme... Becke
Basis function cutoff            BFCut       ... 1.0000e-11
Integration weight cutoff        WCut        ... 1.0000e-14
Angular grids for H and He will be reduced by one unit
Partially contracted basis set               ... off
Rotationally invariant grid construction     ... off

Total number of grid points                  ...    26840
Total number of batches                      ...      421
Average number of points per batch           ...       63
Average number of grid points per atom       ...     6710
Time for grid setup =    0.113 sec

--------------
SCF ITERATIONS
--------------
ITER       Energy         Delta-E        Max-DP      RMS-DP      [F,P]     Damp
               ***  Starting incremental Fock matrix formation  ***
  0  -1298.2815055291   0.000000000000 0.00188345  0.00015189  0.0053589 0.7000
  1  -1298.2815795583  -0.000074029273 0.00191833  0.00014216  0.0025980 0.7000
                               ***Turning on DIIS***
  2  -1298.2816403318  -0.000060773421 0.00638010  0.00041254  0.0018190 0.0000
  3  -1298.2817662366  -0.000125904800 0.00345423  0.00016649  0.0035563 0.0000
  4  -1298.2817276768   0.000038559790 0.00148232  0.00006880  0.0067139 0.0000
  5  -1298.2817725463  -0.000044869526 0.00156499  0.00005414  0.0032564 0.0000
  6  -1298.2817871404  -0.000014594136 0.00108612  0.00003792  0.0012471 0.0000
  7  -1298.2817896660  -0.000002525579 0.98186117  0.03077511  0.0003717 0.0000
  8  -1298.2528272658   0.028962400191 0.00000894  0.00000039  0.1353572 0.7000
  9  -1298.2528256592   0.000001606572 0.00002110  0.00000086  0.1353532 0.7000
 10  -1298.2528234667   0.000002192578 0.00012895  0.00000633  0.1353512 0.7000
 11  -1298.2528122963   0.000011170345 0.00014401  0.00000731  0.1353439 0.7000
 12  -1298.2527980276   0.000014268751 0.02115843  0.00127830  0.1353380 0.7000
 13  -1298.2604043170  -0.007606289468 0.09047182  0.00399643  0.0884469 0.0000
 14  -1298.2616060501  -0.001201733015 0.01269404  0.00052797  0.1142786 0.7000
 15  -1298.2678130429  -0.006206992839 0.04328774  0.00183739  0.0798308 0.0000
 16  -1298.2724635838  -0.004650540873 0.01285496  0.00054425  0.0469175 0.0000
 17  -1298.2739228415  -0.001459257754 0.00515190  0.00030984  0.0232928 0.0000
 18  -1298.2744244664  -0.000501624884 0.00331604  0.00018675  0.0104610 0.0000
 19  -1298.2745211760  -0.000096709598 0.00368132  0.00014945  0.0023818 0.0000
               *** Restarting incremental Fock matrix formation ***
                                   *** Resetting DIIS ***
 20  -1298.2745451875  -0.000024011538 1.00586849  0.04284542  0.0007875 0.0000
 21  -1297.9218234161   0.352721771404 0.00010989  0.00000494  0.3221983 0.7000

 WARNING: the maximum gradient error descreased on average only by a factor   1.1
          during the last 20 iterations

                      *** Initiating the TRAH-SCF procedure ***


TRAH GRID
---------

General Integration Accuracy     IntAcc      ... 3.467
Radial Grid Type                 RadialGrid  ... OptM3 with GC (2021)
Angular Grid (max. ang.)         AngularGrid ... 1 (Lebedev-50)
Angular grid pruning method      GridPruning ... 4 (adaptive)
Weight generation scheme         WeightScheme... Becke
Basis function cutoff            BFCut       ... 1.0000e-11
Integration weight cutoff        WCut        ... 1.0000e-14
Angular grids for H and He will be reduced by one unit
Partially contracted basis set               ... off
Rotationally invariant grid construction     ... off

Total number of grid points                  ...     6681
Total number of batches                      ...      105
Average number of points per batch           ...       63
Average number of grid points per atom       ...     1670

 --------------------------------------------------------------------------------------------
   Iter.        energy            ||Error||_2        Shift      TRadius  Mac/Mic        Rej.
 --------------------------------------------------------------------------------------------
WARNING: 22 diagonal Hessian elements are negative!
    0      -1297.921025015625     1.967639e+00                     0.400 (TRAH MAcro)   No
WARNING : negative HOMO - LUMO gap : -0.510339
    0     dE    -1.274126e-01     1.927033e+00    -2.5074e-01      0.128 (TRAH MIcro)
    0     dE    -2.125053e-01     8.749072e-01    -3.9420e-01      0.280 (TRAH MIcro)
    0     dE    -2.884192e-01     1.390259e+00    -6.8396e-01      0.400 (TRAH MIcro)
    0     dE    -3.113788e-01     7.123353e-01    -1.5773e+00      0.372 (TRAH MIcro)
    0     dE    -3.395198e-01     5.259176e-01    -1.7759e+00      0.400 (TRAH MIcro)
    0     dE    -2.267713e-01     5.531674e-01    -2.7429e+00      0.225 (TRAH MIcro)
    0     dE    -2.240590e-01     6.093741e-02    -2.7754e+00      0.216 (TRAH MIcro)
    0     dE    -2.241317e-01     9.867487e-03    -2.7765e+00      0.216 (TRAH MIcro)
WARNING: 9 diagonal Hessian elements are negative!
    1      -1298.122756235508     3.406489e-01                     0.480 (TRAH MAcro)   No
WARNING : negative HOMO - LUMO gap : -0.160203
    1     dE    -8.539912e-03     1.066835e+00    -1.7037e-02      0.050 (TRAH MIcro)
    1     dE    -2.856208e-02     4.011780e-01    -5.4006e-02      0.240 (TRAH MIcro)
    1     dE    -4.076719e-02     2.730981e-01    -7.3751e-02      0.325 (TRAH MIcro)
    1     dE    -5.313526e-02     4.083195e-01    -9.1259e-02      0.406 (TRAH MIcro)
    1     dE    -6.752042e-02     2.100887e-01    -1.6305e-01      0.480 (TRAH MIcro)
    1     dE    -6.984919e-02     1.542656e-01    -1.9479e-01      0.480 (TRAH MIcro)
    1     dE    -6.934072e-02     2.678280e-01    -2.0579e-01      0.471 (TRAH MIcro)
    1     dE    -4.673018e-02     7.818617e-02    -5.0249e-01      0.267 (TRAH MIcro)
    1     dE    -4.775978e-02     4.973615e-02    -5.0505e-01      0.273 (TRAH MIcro)
    1     dE    -3.189533e-02     1.089785e-01    -9.5895e-01      0.158 (TRAH MIcro)
    1     dE    -3.186407e-02     1.634047e-02    -9.6109e-01      0.157 (TRAH MIcro)
    1     dE    -3.185988e-02     2.039250e-03    -9.6116e-01      0.157 (TRAH MIcro)
WARNING: 5 diagonal Hessian elements are negative!
    2      -1298.154394077698     1.483844e-01                     0.576 (TRAH MAcro)   No
WARNING : negative HOMO - LUMO gap : -0.123959
    2     dE    -1.188211e-02     1.483825e+00    -2.3197e-02      0.156 (TRAH MIcro)
    2     dE    -1.785171e-02     1.846187e+00    -3.3830e-02      0.235 (TRAH MIcro)
    2     dE    -4.061867e-02     7.325176e-01    -6.5753e-02      0.485 (TRAH MIcro)
    2     dE    -4.954167e-02     1.815886e-01    -7.5150e-02      0.564 (TRAH MIcro)
    2     dE    -5.222352e-02     1.930119e-01    -8.6982e-02      0.576 (TRAH MIcro)
    2     dE    -5.275426e-02     6.591019e-02    -9.3293e-02      0.576 (TRAH MIcro)
    2     dE    -5.300921e-02     2.317142e-01    -9.7424e-02      0.576 (TRAH MIcro)
    2     dE    -3.194986e-02     1.535939e-01    -3.2589e-01      0.285 (TRAH MIcro)
    2     dE    -3.229352e-02     2.463526e-02    -3.2692e-01      0.288 (TRAH MIcro)
    2     dE    -3.264523e-02     3.381998e-02    -3.2701e-01      0.291 (TRAH MIcro)
    2     dE    -2.155484e-02     3.876175e-02    -5.8913e-01      0.178 (TRAH MIcro)
    2     dE    -2.153979e-02     3.670308e-03    -5.8944e-01      0.177 (TRAH MIcro)
WARNING: 5 diagonal Hessian elements are negative!
    3      -1298.175803307777     1.102815e-01                     0.691 (TRAH MAcro)   No
WARNING : negative HOMO - LUMO gap : -0.109637
    3     dE    -2.509956e-03     7.446478e-01    -5.0096e-03      0.045 (TRAH MIcro)
    3     dE    -6.945791e-03     1.442510e+00    -1.3638e-02      0.136 (TRAH MIcro)
    3     dE    -2.412039e-02     5.465709e-01    -4.1401e-02      0.406 (TRAH MIcro)
    3     dE    -2.953781e-02     1.350188e-01    -4.8318e-02      0.472 (TRAH MIcro)
    3     dE    -3.275934e-02     8.710222e-02    -5.1798e-02      0.515 (TRAH MIcro)
    3     dE    -3.309317e-02     4.398773e-02    -5.2117e-02      0.520 (TRAH MIcro)
    3     dE    -4.211051e-02     1.026794e+00    -6.0515e-02      0.691 (TRAH MIcro)
    3     dE    -2.900832e-02     1.058417e-01    -2.4033e-01      0.356 (TRAH MIcro)
    3     dE    -3.310879e-02     4.474327e-02    -2.4199e-01      0.399 (TRAH MIcro)
    3     dE    -3.336159e-02     3.424485e-02    -2.4208e-01      0.401 (TRAH MIcro)
    3     dE    -1.558983e-02     2.971836e-02    -4.2965e-01      0.176 (TRAH MIcro)
    3     dE    -1.558455e-02     4.277777e-03    -4.3004e-01      0.176 (TRAH MIcro)
WARNING: 4 diagonal Hessian elements are negative!
    4      -1298.191269879390     9.208145e-02                     0.829 (TRAH MAcro)   No
WARNING : negative HOMO - LUMO gap : -0.100552
    4     dE    -6.715825e-04     5.425057e-01    -1.3429e-03      0.015 (TRAH MIcro)
    4     dE    -1.207780e-02     2.902178e-01    -2.2234e-02      0.294 (TRAH MIcro)
    4     dE    -1.454190e-02     1.609832e-01    -2.5970e-02      0.346 (TRAH MIcro)
    4     dE    -1.542785e-02     1.958724e-01    -2.7242e-02      0.364 (TRAH MIcro)
    4     dE    -1.563822e-02     5.590473e-02    -2.7566e-02      0.367 (TRAH MIcro)
    4     dE    -1.584208e-02     3.790170e-02    -2.7852e-02      0.371 (TRAH MIcro)
    4     dE    -6.273714e-02     4.166812e-01    -1.9223e-01      0.733 (TRAH MIcro)
    4     dE    -8.357756e-02     6.932541e-02    -2.1072e-01      0.829 (TRAH MIcro)
    4     dE    -8.370276e-02     7.290005e-02    -2.1111e-01      0.829 (TRAH MIcro)
    4     dE    -8.382051e-02     1.389055e-01    -2.1153e-01      0.829 (TRAH MIcro)
    4     dE    -1.124922e-02     4.255598e-02    -3.0261e-01      0.181 (TRAH MIcro)
    4     dE    -1.124513e-02     1.292024e-03    -3.0279e-01      0.181 (TRAH MIcro)
WARNING: 4 diagonal Hessian elements are negative!
    5      -1298.202359023797     8.113423e-02                     0.995 (TRAH MAcro)   No
WARNING : negative HOMO - LUMO gap : -0.094616
    5     dE    -4.294593e-04     1.488077e-01    -8.5882e-04      0.011 (TRAH MIcro)
    5     dE    -4.784120e-03     1.647658e-01    -9.2560e-03      0.184 (TRAH MIcro)
    5     dE    -5.454653e-03     1.151322e-01    -1.0474e-02      0.204 (TRAH MIcro)
    5     dE    -6.807414e-03     1.655052e-01    -1.2867e-02      0.241 (TRAH MIcro)
    5     dE    -6.969005e-02     1.407009e+00    -1.0585e-01      0.995 (TRAH MIcro)
    5     dE    -6.539748e-02     2.293790e-01    -2.0251e-01      0.729 (TRAH MIcro)
    5     dE    -6.813368e-02     2.173156e-01    -2.0425e-01      0.743 (TRAH MIcro)
    5     dE    -7.006133e-02     2.064794e-01    -2.0558e-01      0.753 (TRAH MIcro)
    5     dE    -1.221441e-01     5.653671e-01    -2.2521e-01      0.995 (TRAH MIcro)
    5     dE    -1.737278e-02     1.443480e-02    -2.6879e-01      0.296 (TRAH MIcro)
    5     dE    -1.735730e-02     1.462978e-03    -2.6883e-01      0.296 (TRAH MIcro)
WARNING: 4 diagonal Hessian elements are negative!
    6      -1298.218315700443     9.291928e-02                     1.194 (TRAH MAcro)   No
WARNING : negative HOMO - LUMO gap : -0.078445
    6     dE    -7.968598e-04     5.343488e-01    -1.5930e-03      0.021 (TRAH MIcro)
    6     dE    -4.521740e-03     6.530341e-01    -8.7719e-03      0.176 (TRAH MIcro)
    6     dE    -1.019515e-02     7.427697e-01    -1.8618e-02      0.309 (TRAH MIcro)
    6     dE    -1.092355e-01     1.694966e+00    -1.0065e-01      1.194 (TRAH MIcro)
    6     dE    -1.421090e-01     4.732127e-01    -1.5798e-01      1.161 (TRAH MIcro)
    6     dE    -1.528462e-01     3.675501e-01    -1.6351e-01      1.194 (TRAH MIcro)
    6     dE    -1.554279e-01     4.639054e-01    -1.6837e-01      1.194 (TRAH MIcro)
    6     dE    -1.624129e-01     2.253445e-01    -1.8375e-01      1.194 (TRAH MIcro)
    6     dE    -1.187643e-01     3.668686e-02    -1.9706e-01      0.974 (TRAH MIcro)
    6     dE    -1.201123e-01     9.511975e-03    -1.9720e-01      0.981 (TRAH MIcro)
    6     dE    -1.203877e-01     1.022678e-02    -1.9722e-01      0.982 (TRAH MIcro)
    6     dE    -1.205808e-01     4.668640e-03    -1.9724e-01      0.983 (TRAH MIcro)
WARNING: 6 diagonal Hessian elements are negative!
    7      -1298.222035882774     1.087614e+00                     0.836 (TRAH MAcro)   No
WARNING : negative HOMO - LUMO gap : -0.117882
    7     dE    -3.659385e-02     7.921247e-01    -7.2861e-02      0.067 (TRAH MIcro)
    7     dE    -4.593074e-02     2.441962e-01    -9.0704e-02      0.113 (TRAH MIcro)
    7     dE    -4.936901e-02     8.004986e-02    -9.6587e-02      0.149 (TRAH MIcro)
    7     dE    -5.132240e-02     1.833891e-01    -9.9521e-02      0.177 (TRAH MIcro)
    7     dE    -9.980901e-02     1.120691e+00    -1.2122e-01      0.804 (TRAH MIcro)
    7     dE    -1.179531e-01     4.493851e-01    -2.4570e-01      0.713 (TRAH MIcro)
    7     dE    -1.469459e-01     4.832203e-01    -2.5775e-01      0.836 (TRAH MIcro)
    7     dE    -1.532705e-01     5.500939e-01    -2.7904e-01      0.836 (TRAH MIcro)
    7     dE    -5.858258e-02     8.258186e-02    -3.7259e-01      0.241 (TRAH MIcro)
    7     dE    -5.823734e-02     2.036925e-02    -3.7365e-01      0.236 (TRAH MIcro)
    7     dE    -5.844264e-02     2.844703e-02    -3.7375e-01      0.238 (TRAH MIcro)
    7     dE    -6.437807e-02     5.243816e-02    -3.7436e-01      0.296 (TRAH MIcro)
    7     dE    -9.918871e-02     1.067024e-01    -3.7571e-01      0.521 (TRAH MIcro)
    7     dE    -4.863649e-02     3.494602e-02    -7.6459e-01      0.111 (TRAH MIcro)
WARNING: 4 diagonal Hessian elements are negative!
    8      -1298.270821480928     1.076858e-01                     1.003 (TRAH MAcro)   No
WARNING : negative HOMO - LUMO gap : -0.045119
    8     dE    -2.914640e-04     4.637758e-01    -5.8289e-04      0.008 (TRAH MIcro)
    8     dE    -1.581234e-03     1.906298e-01    -3.1391e-03      0.086 (TRAH MIcro)
    8     dE    -2.821388e-03     2.407152e-01    -5.5644e-03      0.119 (TRAH MIcro)
    8     dE    -2.967338e-03     1.748623e-01    -5.8616e-03      0.112 (TRAH MIcro)
    8     dE    -3.609932e-03     2.666715e-01    -7.0388e-03      0.160 (TRAH MIcro)
    8     dE    -5.881021e-03     2.127414e-01    -1.0522e-02      0.343 (TRAH MIcro)
    8     dE    -1.456158e-02     3.125126e-01    -1.7738e-02      0.801 (TRAH MIcro)
    8     dE    -2.099347e-02     1.896885e-01    -2.0996e-02      1.003 (TRAH MIcro)
    8     dE    -2.185349e-02     4.748812e-02    -2.2776e-02      1.003 (TRAH MIcro)
    8     dE    -2.211534e-02     5.093310e-02    -2.3311e-02      1.003 (TRAH MIcro)
    8     dE    -2.278872e-02     7.248113e-02    -2.4764e-02      1.003 (TRAH MIcro)
    8     dE    -2.314011e-02     8.286280e-02    -2.5570e-02      1.003 (TRAH MIcro)
    8     dE    -2.363997e-02     1.306567e-01    -2.6699e-02      1.003 (TRAH MIcro)
    8     dE    -1.720916e-02     7.640269e-02    -4.8923e-02      0.669 (TRAH MIcro)
 ---------------------------------
          TRAH Step control 
 ---------------------------------
  predicted energy change = -0.017209
  actual energy  change   = 0.004454
  energy change ratio     = -0.258839
  old trust radius        = 1.003291
  new trust radius        = 0.702303
  reject step?            =  1
    9      -1298.270821480928     1.087614e+00                     0.702 (TRAH MAcro)  Yes
WARNING: 4 diagonal Hessian elements are negative!
   10      -1298.270821480928     1.076858e-01                     0.702 (TRAH MAcro)   No
WARNING : negative HOMO - LUMO gap : -0.045119
   10     dE    -2.928584e-04     4.669455e-01    -5.8568e-04      0.008 (TRAH MIcro)
   10     dE    -1.582260e-03     1.973143e-01    -3.1410e-03      0.086 (TRAH MIcro)
   10     dE    -2.822362e-03     2.460764e-01    -5.5665e-03      0.119 (TRAH MIcro)
   10     dE    -2.965976e-03     1.772355e-01    -5.8590e-03      0.112 (TRAH MIcro)
   10     dE    -3.604427e-03     2.635020e-01    -7.0287e-03      0.160 (TRAH MIcro)
   10     dE    -5.841881e-03     2.101117e-01    -1.0472e-02      0.340 (TRAH MIcro)
   10     dE    -1.311362e-02     2.645570e-01    -2.0593e-02      0.702 (TRAH MIcro)
   10     dE    -1.488816e-02     1.276937e-01    -2.8374e-02      0.702 (TRAH MIcro)
   10     dE    -1.528222e-02     3.176376e-02    -3.0013e-02      0.702 (TRAH MIcro)
   10     dE    -1.541383e-02     3.415597e-02    -3.0547e-02      0.702 (TRAH MIcro)
   10     dE    -1.577108e-02     5.625309e-02    -3.2127e-02      0.702 (TRAH MIcro)
   10     dE    -1.547078e-02     6.552015e-02    -3.3786e-02      0.681 (TRAH MIcro)
   10     dE    -1.630329e-02     1.051768e-01    -3.4860e-02      0.702 (TRAH MIcro)
   10     dE    -1.860114e-02     7.178475e-02    -4.9896e-02      0.702 (TRAH MIcro)
 ---------------------------------
          TRAH Step control 
 ---------------------------------
  predicted energy change = -0.018601
  actual energy  change   = 0.007039
[...]
DIIS solution               ....       0.119 sec  (  2.3%)
Grid generation             ....       0.130 sec  (  2.5%)

Maximum memory used throughout the entire SCF-calculation: 9.5 MB

-------------------------   --------------------
FINAL SINGLE POINT ENERGY     -1298.322355155807
-------------------------   --------------------

                                *** OPTIMIZATION RUN DONE ***

                            ***************************************
                            *     ORCA property calculations      *
                            ***************************************

                                    ---------------------
                                    Active property flags
                                    ---------------------
   (+) Dipole Moment
   (+) Polarizability


------------------------------------------------------------------------------
                       ORCA ELECTRIC PROPERTIES CALCULATION
------------------------------------------------------------------------------

Dipole Moment Calculation                       ... on
Quadrupole Moment Calculation                   ... off
Polarizability Calculation                      ... Analytic (CP-SCF)
GBWName                                         ... MnOOH_COMPLETE.gbw
Electron density                                ... MnOOH_COMPLETE.scfp
The origin for moment calculation is the CENTER OF MASS  = (-2.794046,  3.868132 -0.189130)

-------------
DIPOLE MOMENT
-------------
                                X             Y             Z
Electronic contribution:     -1.06112      -2.76959      -0.34326
Nuclear contribution   :      1.74713       2.69998       0.49802
                        -----------------------------------------
Total Dipole Moment    :      0.68601      -0.06961       0.15476
                        -----------------------------------------
Magnitude (a.u.)       :      0.70668
Magnitude (Debye)      :      1.79625



--------------------
Rotational spectrum 
--------------------
 
Rotational constants in cm-1:     1.191984     0.258223     0.213037 
Rotational constants in MHz : 35734.774076  7741.335070  6386.693042 

 Dipole components along the rotational axes: 
x,y,z [a.u.] :     0.637667    -0.114726    -0.282174 
x,y,z [Debye]:     1.620820    -0.291611    -0.717229 

 
Transforming and storing MO dipole integrals   ... done

                ... starting polarizability calculation

The origin for moment calculation is the CENTER OF MASS  = (-2.794046,  3.868132 -0.189130)
Opening the Dipole integral file               ... (MnOOH_COMPLETE.dmo.tmp) done
Reading Dipole-MO integrals                    ... done
Solving CP-SCF equations                       ... 

           ************************************************************
           *        Program running with 5 parallel MPI-processes     *
           *              working on a common directory               *
           ************************************************************

------------------------------------------------------------------------------
                           ORCA CP-SCF CALCULATION
------------------------------------------------------------------------------

Input orbitals are from        ... MnOOH_COMPLETE.gbw
Input Perturbation             ... MnOOH_COMPLETE.cpv.tmp
Wavefunction output            ... MnOOH_COMPLETE.cpu.tmp
Perturbation mode              ... Real perturbation (singlet)
Solver                         ... POPLE
Max. number of iterations      ... 64
Convergence tolerance          ... 1.000e-04
Integral handling              ... Direct
DFT GridXC                     ... 1
Number of perturbations        ... 3
Number of operators            ... 1
Orbital ranges used for CP-SCF:
 Operator 0:  Orbitals   0... 20  to  21... 63
Variables per perturbation     ... 903
DFT calculation                         ... on
XC functional terms                     ... on
Exchange functional (SCF)               ... Slater
Exchange functional (CP-SCF)            ... Slater
   X-Alpha parameter    XAlpha (SCF)    ...  0.666667
   X-Alpha parameter    XAlpha (CP-SCF) ...  0.666667
Correlation functional (SCF)            ... VWN-5
Correlation functional (CP-SCF)         ... VWN-5

CP-SCF GRID
-----------

General Integration Accuracy     IntAcc      ... 3.467
Radial Grid Type                 RadialGrid  ... OptM3 with GC (2021)
Angular Grid (max. ang.)         AngularGrid ... 1 (Lebedev-50)
Angular grid pruning method      GridPruning ... 4 (adaptive)
Weight generation scheme         WeightScheme... Becke
Basis function cutoff            BFCut       ... 1.0000e-11
Integration weight cutoff        WCut        ... 1.0000e-14
Angular grids for H and He will be reduced by one unit
Partially contracted basis set               ... off
Rotationally invariant grid construction     ... off

Total number of grid points                  ...     6691
Total number of batches                      ...      106
Average number of points per batch           ...       63
Average number of grid points per atom       ...     1673

Recalculating density on grid  ... done
Calculating the xc-kernel      ... done
Memory available               ... 1020.2 MB
Memory needed per perturbation ...   0.3 MB
Perturbations treated per batch... 3
Number of batches              ... 1
     CP-SCF ITERATION   0:   2.0601e+02 (   0.0 sec   0/  3 done)
     CP-SCF ITERATION   1:   2.3133e+01 (   0.0 sec   0/  3 done)
     CP-SCF ITERATION   2:   1.1756e+01 (   0.0 sec   0/  3 done)
     CP-SCF ITERATION   3:   1.9980e+01 (   0.0 sec   0/  3 done)
     CP-SCF ITERATION   4:   1.6682e+01 (   0.0 sec   0/  3 done)
     CP-SCF ITERATION   5:   1.5589e+00 (   0.0 sec   0/  3 done)
     CP-SCF ITERATION   6:   4.6515e-01 (   0.0 sec   0/  3 done)
     CP-SCF ITERATION   7:   9.8804e-02 (   0.0 sec   0/  3 done)
     CP-SCF ITERATION   8:   2.5757e-02 (   0.0 sec   0/  3 done)
     CP-SCF ITERATION   9:   5.4990e-03 (   0.0 sec   0/  3 done)
     CP-SCF ITERATION  10:   1.0270e-03 (   0.0 sec   0/  3 done)
     CP-SCF ITERATION  11:   1.7585e-04 (   0.0 sec   0/  3 done)
     CP-SCF ITERATION  12:   4.0785e-05 (   0.0 sec   3/  3 done)
                    *** THE CP-SCF HAS CONVERGED ***
done
Reading CP-SCF coefficients                    ... done
Doing the polarizability tensor                ... done
Cleaning up                                    ... done

-------------------------
THE POLARIZABILITY TENSOR
-------------------------

The raw cartesian tensor (atomic units):
   39.94287      3.01280     -0.85226  
    3.01280     34.94609      1.64056  
   -0.85226      1.64056     27.79505  
diagonalized tensor: 
   27.25123     34.07394     41.35883  

    0.12455     -0.40537     -0.90563  
   -0.25330      0.86950     -0.42404  
    0.95934      0.28221      0.00562  

Isotropic polarizability :  34.22800


----------------------------------------------------------------------------
                           ORCA NUMERICAL FREQUENCIES
                              (5-process run)
----------------------------------------------------------------------------

Number of atoms                ... 4
Central differences            ... used
Number of displacements        ... 24
Numerical increment            ... 5.000e-03 bohr
IR-spectrum generation         ... on
Raman-spectrum generation      ... on
Polarizability calculation     ... 1
Surface Crossing Hessian       ... off

The output will be reduced. Please look at the following files:
SCF program output             ... >MnOOH_COMPLETE.lastscf
Integral program output        ... >MnOOH_COMPLETE.lastint
Gradient program output        ... >MnOOH_COMPLETE.lastgrad
Dipole moment program output   ... >MnOOH_COMPLETE.lastmom
AutoCI program output          ... >MnOOH_COMPLETE.lastautoci

	<< Calculating on displaced geometry   2 (of  24) >>
	<< Calculating on displaced geometry   5 (of  24) >>
	<< Calculating on displaced geometry   1 (of  24) >>
	<< Calculating on displaced geometry   4 (of  24) >>
	<< Calculating on displaced geometry   3 (of  24) >>
	<< Calculating on displaced geometry   8 (of  24) >>
	<< Calculating on displaced geometry   9 (of  24) >>
	<< Calculating on displaced geometry   7 (of  24) >>
	<< Calculating on displaced geometry   6 (of  24) >>
	<< Calculating on displaced geometry  10 (of  24) >>
	<< Calculating on displaced geometry  11 (of  24) >>
	<< Calculating on displaced geometry  13 (of  24) >>
	<< Calculating on displaced geometry  12 (of  24) >>
	<< Calculating on displaced geometry  14 (of  24) >>
	<< Calculating on displaced geometry  15 (of  24) >>
	<< Calculating on displaced geometry  16 (of  24) >>
	<< Calculating on displaced geometry  17 (of  24) >>
	<< Calculating on displaced geometry  18 (of  24) >>
	<< Calculating on displaced geometry  19 (of  24) >>
	<< Calculating on displaced geometry  20 (of  24) >>
	<< Calculating on displaced geometry  21 (of  24) >>
	<< Calculating on displaced geometry  22 (of  24) >>
	<< Calculating on displaced geometry  24 (of  24) >>
	<< Calculating on displaced geometry  23 (of  24) >>

-----------------------
VIBRATIONAL FREQUENCIES
-----------------------

Scaling factor for frequencies =  1.000000000 (already applied!)

   0:         0.00 cm**-1
   1:         0.00 cm**-1
   2:         0.00 cm**-1
   3:         0.00 cm**-1
   4:         0.00 cm**-1
   5:         0.00 cm**-1
   6:       177.91 cm**-1
   7:       270.30 cm**-1
   8:       528.68 cm**-1
   9:       845.37 cm**-1
  10:      1107.05 cm**-1
  11:      3754.89 cm**-1


------------
NORMAL MODES
------------

These modes are the cartesian displacements weighted by the diagonal matrix
M(i,i)=1/sqrt(m[i]) where m[i] is the mass of the displaced atom
Thus, these vectors are normalized but *not* orthogonal

                  0          1          2          3          4          5    
      0       0.000000   0.000000   0.000000   0.000000   0.000000   0.000000
      1       0.000000   0.000000   0.000000   0.000000   0.000000   0.000000
      2       0.000000   0.000000   0.000000   0.000000   0.000000   0.000000
      3       0.000000   0.000000   0.000000   0.000000   0.000000   0.000000
      4       0.000000   0.000000   0.000000   0.000000   0.000000   0.000000
      5       0.000000   0.000000   0.000000   0.000000   0.000000   0.000000
      6       0.000000   0.000000   0.000000   0.000000   0.000000   0.000000
      7       0.000000   0.000000   0.000000   0.000000   0.000000   0.000000
      8       0.000000   0.000000   0.000000   0.000000   0.000000   0.000000
      9       0.000000   0.000000   0.000000   0.000000   0.000000   0.000000
     10       0.000000   0.000000   0.000000   0.000000   0.000000   0.000000
     11       0.000000   0.000000   0.000000   0.000000   0.000000   0.000000
                  6          7          8          9         10         11    
      0      -0.001769  -0.001240   0.009545   0.130764   0.248794  -0.000103
      1       0.062901  -0.057111  -0.017892   0.122437  -0.122836   0.000217
      2      -0.009236  -0.028913  -0.002464  -0.002767  -0.062854  -0.000053
      3      -0.098645   0.103471   0.032662   0.061514  -0.823980   0.000870
      4      -0.123242   0.120504   0.026562  -0.054705   0.430044  -0.000530
      5       0.024515   0.033759  -0.015305  -0.018312   0.215243  -0.000156
      6       0.087716  -0.071322  -0.124145  -0.465742  -0.030238  -0.021531
      7      -0.116179   0.036230   0.048145  -0.345641  -0.005424  -0.050708
      8       0.061198   0.103626   0.039920   0.019746  -0.004244  -0.030686
      9       0.269855  -0.442699   0.931756  -0.711253  -0.002093   0.333540
     10       0.371729   0.625085  -0.210567  -0.318971  -0.044555   0.801421
     11      -0.857026  -0.604717  -0.256407   0.128037   0.076810   0.492441


-----------
IR SPECTRUM
-----------

 Mode   freq       eps      Int      T**2         TX        TY        TZ
       cm**-1   L/(mol*cm) km/mol    a.u.
----------------------------------------------------------------------------
  6:    177.91   0.020385  103.02  0.035757  ( 0.056429  0.129203 -0.126012)
  7:    270.30   0.014161   71.56  0.016349  (-0.034173  0.085153 -0.089054)
  8:    528.68   0.024321  122.91  0.014356  ( 0.111277 -0.013110 -0.042445)
  9:    845.37   0.011918   60.23  0.004400  ( 0.048090  0.045319  0.005756)
 10:   1107.05   0.023807  120.31  0.006711  ( 0.078519 -0.016281 -0.016755)
 11:   3754.89   0.048105  243.10  0.003998  ( 0.038446  0.046840  0.018052)

* The epsilon (eps) is given for a Dirac delta lineshape.
** The dipole moment derivative (T) already includes vibrational overlap.

--------------
RAMAN SPECTRUM  
--------------

 Mode    freq (cm**-1)   Activity   Depolarization
-------------------------------------------------------------------
   6:       177.91      3.889242      0.641585
   7:       270.30      5.653573      0.742498
   8:       528.68      1.486243      0.589649
   9:       845.37     10.436345      0.373336
  10:      1107.05      9.632842      0.710598
  11:      3754.89    198.870773      0.293248

The first frequency considered to be a vibration is 6
The total number of vibrations considered is 6


--------------------------
THERMOCHEMISTRY AT 298.15K
--------------------------

Temperature         ... 298.15 K
Pressure            ... 1.00 atm
Total Mass          ... 87.95 AMU

Throughout the following assumptions are being made:
  (1) The electronic state is orbitally nondegenerate
  (2) There are no thermally accessible electronically excited states
  (3) Hindered rotations indicated by low frequency modes are not
      treated as such but are treated as vibrations and this may
      cause some error
  (4) All equations used are the standard statistical mechanics
      equations for an ideal gas
  (5) All vibrations are strictly harmonic

freq.     177.91  E(vib)   ...       0.37 
freq.     270.30  E(vib)   ...       0.29 
freq.     528.68  E(vib)   ...       0.13 
freq.     845.37  E(vib)   ...       0.04 
freq.    1107.05  E(vib)   ...       0.02 
freq.    3754.89  E(vib)   ...       0.00 

------------
INNER ENERGY
------------

The inner energy is: U= E(el) + E(ZPE) + E(vib) + E(rot) + E(trans)
    E(el)   - is the total energy from the electronic structure calculation
              = E(kin-el) + E(nuc-el) + E(el-el) + E(nuc-nuc)
    E(ZPE)  - the the zero temperature vibrational energy from the frequency calculation
    E(vib)  - the the finite temperature correction to E(ZPE) due to population
              of excited vibrational states
    E(rot)  - is the rotational thermal energy
    E(trans)- is the translational thermal energy

Summary of contributions to the inner energy U:
Electronic energy                ...  -1298.32235515 Eh
Zero point energy                ...      0.01522772 Eh       9.56 kcal/mol
Thermal vibrational correction   ...      0.00134913 Eh       0.85 kcal/mol
Thermal rotational correction    ...      0.00141627 Eh       0.89 kcal/mol
Thermal translational correction ...      0.00141627 Eh       0.89 kcal/mol
-----------------------------------------------------------------------
Total thermal energy                  -1298.30294576 Eh


Summary of corrections to the electronic energy:
(perhaps to be used in another calculation)
Total thermal correction                  0.00418167 Eh       2.62 kcal/mol
Non-thermal (ZPE) correction              0.01522772 Eh       9.56 kcal/mol
-----------------------------------------------------------------------
Total correction                          0.01940939 Eh      12.18 kcal/mol


--------
ENTHALPY
--------

The enthalpy is H = U + kB*T
                kB is Boltzmann's constant
Total free energy                 ...  -1298.30294576 Eh 
Thermal Enthalpy correction       ...      0.00094421 Eh       0.59 kcal/mol
-----------------------------------------------------------------------
Total Enthalpy                    ...  -1298.30200155 Eh


Note: Only C1 symmetry has been detected, increase convergence thresholds 
      if your molecule has a higher symmetry. Symmetry factor of 1.0 is   
      used for the rotational entropy correction. 
 

Note: Rotational entropy computed according to Herzberg 
Infrared and Raman Spectra, Chapter V,1, Van Nostrand Reinhold, 1945 
Point Group:  C1, Symmetry Number:   1  
Rotational constants in cm-1:     1.191984     0.258223     0.213037 

Vibrational entropy computed according to the QRRHO of S. Grimme
Chem.Eur.J. 2012 18 9955


-------
ENTROPY
-------

The entropy contributions are T*S = T*(S(el)+S(vib)+S(rot)+S(trans))
     S(el)   - electronic entropy
     S(vib)  - vibrational entropy
     S(rot)  - rotational entropy
     S(trans)- translational entropy
The entropies will be listed as multiplied by the temperature to get
units of energy

Electronic entropy                ...      0.00000000 Eh      0.00 kcal/mol
Vibrational entropy               ...      0.00226571 Eh      1.42 kcal/mol
Rotational entropy                ...      0.01079707 Eh      6.78 kcal/mol
Translational entropy             ...      0.01868933 Eh     11.73 kcal/mol
-----------------------------------------------------------------------
Final entropy term                ...      0.03175210 Eh     19.92 kcal/mol

In case the symmetry of your molecule has not been determined correctly
or in case you have a reason to use a different symmetry number we print 
out the resulting rotational entropy values for sn=1,12 :
 --------------------------------------------------------
|  sn= 1 | S(rot)=       0.01079707 Eh      6.78 kcal/mol|
|  sn= 2 | S(rot)=       0.01014261 Eh      6.36 kcal/mol|
|  sn= 3 | S(rot)=       0.00975978 Eh      6.12 kcal/mol|
|  sn= 4 | S(rot)=       0.00948816 Eh      5.95 kcal/mol|
|  sn= 5 | S(rot)=       0.00927747 Eh      5.82 kcal/mol|
|  sn= 6 | S(rot)=       0.00910532 Eh      5.71 kcal/mol|
|  sn= 7 | S(rot)=       0.00895978 Eh      5.62 kcal/mol|
|  sn= 8 | S(rot)=       0.00883370 Eh      5.54 kcal/mol|
|  sn= 9 | S(rot)=       0.00872249 Eh      5.47 kcal/mol|
|  sn=10 | S(rot)=       0.00862301 Eh      5.41 kcal/mol|
|  sn=11 | S(rot)=       0.00853302 Eh      5.35 kcal/mol|
|  sn=12 | S(rot)=       0.00845087 Eh      5.30 kcal/mol|
 --------------------------------------------------------


-------------------
GIBBS FREE ENERGY
-------------------

The Gibbs free energy is G = H - T*S

Total enthalpy                    ...  -1298.30200155 Eh 
Total entropy correction          ...     -0.03175210 Eh    -19.92 kcal/mol
-----------------------------------------------------------------------
Final Gibbs free energy         ...  -1298.33375366 Eh

For completeness - the Gibbs free energy minus the electronic energy
G-E(el)                           ...     -0.01139851 Eh     -7.15 kcal/mol



Timings for individual modules:

Sum of individual times         ...     1183.917 sec (=  19.732 min)
GTO integral calculation        ...      103.479 sec (=   1.725 min)   8.7 %
SCF iterations                  ...      861.031 sec (=  14.351 min)  72.7 %
Solution of CP-SCF eqns.        ...        1.916 sec (=   0.032 min)   0.2 %
SCF Gradient evaluation         ...      123.583 sec (=   2.060 min)  10.4 %
Geometry relaxation             ...        2.668 sec (=   0.044 min)   0.2 %
Numerical frequency calculation ...       91.240 sec (=   1.521 min)   7.7 %
                             ****ORCA TERMINATED NORMALLY****
TOTAL RUN TIME: 0 days 0 hours 19 minutes 49 seconds 220 msec
