
                                 *****************
                                 * O   R   C   A *
                                 *****************

           --- An Ab Initio, DFT and Semiempirical electronic structure package ---

                  #######################################################
                  #                        -***-                        #
                  #          Department of theory and spectroscopy      #
                  #               Directorship: Frank Neese             #
                  #        Max Planck Institute fuer Kohlenforschung    #
                  #                Kaiser Wilhelm Platz 1               #
                  #                 D-45470 Muelheim/Ruhr               #
                  #                      Germany                        #
                  #                                                     #
                  #                  All rights reserved                #
                  #                        -***-                        #
                  #######################################################


                         Program Version 4.2.1 -  RELEASE  -


 With contributions from (in alphabetic order):
   Daniel Aravena         : Magnetic Suceptibility
   Michael Atanasov       : Ab Initio Ligand Field Theory (pilot matlab implementation)
   Alexander A. Auer      : GIAO ZORA, VPT2
   Ute Becker             : Parallelization
   Giovanni Bistoni       : ED, misc. LED, open-shell LED, HFLD
   Martin Brehm           : Molecular dynamics
   Dmytro Bykov           : SCF Hessian
   Vijay G. Chilkuri      : MRCI spin determinant printing, contributions to CSF-ICE
   Dipayan Datta          : RHF DLPNO-CCSD density
   Achintya Kumar Dutta   : EOM-CC, STEOM-CC
   Dmitry Ganyushin       : Spin-Orbit,Spin-Spin,Magnetic field MRCI
   Miquel Garcia          : C-PCM Hessian, Gaussian charge scheme
   Yang Guo               : DLPNO-NEVPT2, CIM, IAO-localization
   Andreas Hansen         : Spin unrestricted coupled pair/coupled cluster methods
   Benjamin Helmich-Paris : CASSCF linear response (MC-RPA)
   Lee Huntington         : MR-EOM, pCC
   Robert Izsak           : Overlap fitted RIJCOSX, COSX-SCS-MP3, EOM
   Christian Kollmar      : KDIIS, OOCD, Brueckner-CCSD(T), CCSD density
   Simone Kossmann        : Meta GGA functionals, TD-DFT gradient, OOMP2, MP2 Hessian
   Martin Krupicka        : AUTO-CI
   Lucas Lang             : DCDCAS
   Dagmar Lenk            : GEPOL surface, SMD
   Dimitrios Liakos       : Extrapolation schemes; Compound Job, initial MDCI parallelization
   Dimitrios Manganas     : Further ROCIS development; embedding schemes
   Dimitrios Pantazis     : SARC Basis sets
   Taras Petrenko         : DFT Hessian,TD-DFT gradient, ASA, ECA, R-Raman, ABS, FL, XAS/XES, NRVS
   Peter Pinski           : DLPNO-MP2, DLPNO-MP2 Gradient
   Christoph Reimann      : Effective Core Potentials
   Marius Retegan         : Local ZFS, SOC
   Christoph Riplinger    : Optimizer, TS searches, QM/MM, DLPNO-CCSD(T), (RO)-DLPNO pert. Triples
   Tobias Risthaus        : Range-separated hybrids, TD-DFT gradient, RPA, STAB
   Michael Roemelt        : Original ROCIS implementation
   Masaaki Saitow         : Open-shell DLPNO-CCSD energy and density
   Barbara Sandhoefer     : DKH picture change effects
   Avijit Sen             : IP-ROCIS
   Kantharuban Sivalingam : CASSCF convergence, NEVPT2, FIC-MRCI
   Bernardo de Souza      : ESD, SOC TD-DFT
   Georgi Stoychev        : AutoAux, RI-MP2 NMR
   Willem Van den Heuvel  : Paramagnetic NMR
   Boris Wezisla          : Elementary symmetry handling
   Frank Wennmohs         : Technical directorship


 We gratefully acknowledge several colleagues who have allowed us to
 interface, adapt or use parts of their codes:
   Stefan Grimme, W. Hujo, H. Kruse,             : VdW corrections, initial TS optimization,
                  C. Bannwarth                     DFT functionals, gCP, sTDA/sTD-DF
   Ed Valeev, F. Pavosevic, A. Kumar             : LibInt (2-el integral package), F12 methods
   Garnet Chan, S. Sharma, J. Yang, R. Olivares  : DMRG
   Ulf Ekstrom                                   : XCFun DFT Library
   Mihaly Kallay                                 : mrcc  (arbitrary order and MRCC methods)
   Andreas Klamt, Michael Diedenhofen            : otool_cosmo (COSMO solvation model)
   Jiri Pittner, Ondrej Demel                    : Mk-CCSD
   Frank Weinhold                                : gennbo (NPA and NBO analysis)
   Christopher J. Cramer and Donald G. Truhlar   : smd solvation model
   Lars Goerigk                                  : TD-DFT with DH, B97 family of functionals
   V. Asgeirsson, H. Jonsson                     : NEB implementation
   FAccTs GmbH                                   : IRC, NEB, NEB-TS, Multilevel, MM, QM/MM, CI optimization
   S Lehtola, MJT Oliveira, MAL Marques          : LibXC Library


 Your calculation uses the libint2 library for the computation of 2-el integrals
 For citations please refer to: http://libint.valeyev.net

 Your ORCA version has been built with support for libXC version: 4.2.3
 For citations please refer to: https://tddft.org/programs/libxc/

 This ORCA versions uses:
   CBLAS   interface :  Fast vector & matrix operations
   LAPACKE interface :  Fast linear algebra routines
   SCALAPACK package :  Parallel linear algebra routines


SCAN-COORDS
----- Orbital basis set information -----
Your calculation utilizes the basis: 3-21G
   H-Ne       : J. S. Binkley, J. A. Pople and W. J. Hehre, J. Am. Chem. Soc. 102 939 (1980).
   Na-Ar      : M. S. Gordon, J. S. Binkley, J. A. Pople, W. J. Pietro and W.J. Hehre, J. Am. Chem. Soc. 104, 2797 (1983).
   K-Ca, Ga-Kr: K. D. Dobbs and W. J. Hehre, J. Comput. Chem. 7, 359 (1986).
   Sc-Zn      : K. D. Dobbs and W. J. Hehre, J. Comput. Chem. 8, 861 (1987).
   Y-Cd       : K. D. Dobbs and W. J. Hehre, J. Comput. Chem. 8, 880 (1987).

================================================================================
                                        WARNINGS
                       Please study these warnings very carefully!
================================================================================


WARNING: Geometry Optimization
  ===> : Switching off AutoStart
         For restart on a previous wavefunction, please use MOREAD

INFO   : the flag for use of LIBINT has been found!

================================================================================
                                       INPUT FILE
================================================================================
NAME = actividad2_Q2002B.inp
|  1> #end
|  2> 
|  3> %method
|  4> 	method HF
|  5> 	runtyp OPT
|  6> end
|  7> %basis
|  8> 	basis "3-21G"
|  9> end
| 10> ! NumFreq
| 11> %elprop
| 12> 	Polar 1
| 13> end
| 14> %output
| 15> 	XYZFile true
| 16> 	Print [ P_AtPopMO_L ] 1
| 17> 	Print [ P_OrbPopMO_L ] 1
| 18> end
| 19> %coords
| 20> 	CTyp xyz
| 21> 	Charge 0
| 22> 	Mult 1
| 23> 	Units Angs
| 24> 	coords
| 25> 	C 0.0 0.0 0.0
| 26> 	O 0.0 0.0 2.5
| 27> 	end
| 28> end
| 29> 
| 30> 
| 31>                          ****END OF INPUT****
================================================================================

                       *****************************
                       * Geometry Optimization Run *
                       *****************************

Geometry optimization settings:
Update method            Update   .... BFGS
Choice of coordinates    CoordSys .... Z-matrix Internals
Initial Hessian          InHess   .... Almoef's Model

Convergence Tolerances:
Energy Change            TolE     ....  5.0000e-06 Eh
Max. Gradient            TolMAXG  ....  3.0000e-04 Eh/bohr
RMS Gradient             TolRMSG  ....  1.0000e-04 Eh/bohr
Max. Displacement        TolMAXD  ....  4.0000e-03 bohr
RMS Displacement         TolRMSD  ....  2.0000e-03 bohr
Strict Convergence                ....  False
------------------------------------------------------------------------------
                        ORCA OPTIMIZATION COORDINATE SETUP
------------------------------------------------------------------------------

The optimization will be done in new redundant internal coordinates
Making redundant internal coordinates   ...  (new redundants) done
Evaluating the initial hessian          ...  (Almloef) done
Evaluating the coordinates              ...  done
Calculating the B-matrix                .... done
Calculating the G-matrix                .... done
Diagonalizing the G-matrix              .... done
The first mode is                       ....    0
The number of degrees of freedom        ....    1

    -----------------------------------------------------------------
                    Redundant Internal Coordinates


    -----------------------------------------------------------------
         Definition                    Initial Value    Approx d2E/dq
    -----------------------------------------------------------------
      1. B(O   1,C   0)                  2.5000         0.009483   
    -----------------------------------------------------------------

Number of atoms                         .... 2
Number of degrees of freedom            .... 1

         *************************************************************
         *                GEOMETRY OPTIMIZATION CYCLE   1            *
         *************************************************************
---------------------------------
CARTESIAN COORDINATES (ANGSTROEM)
---------------------------------
  C      0.000000    0.000000    0.000000
  O      0.000000    0.000000    2.500000

----------------------------
CARTESIAN COORDINATES (A.U.)
----------------------------
  NO LB      ZA    FRAG     MASS         X           Y           Z
   0 C     6.0000    0    12.011    0.000000    0.000000    0.000000
   1 O     8.0000    0    15.999    0.000000    0.000000    4.724315

--------------------------------
INTERNAL COORDINATES (ANGSTROEM)
--------------------------------
 C      0   0   0     0.000000000000     0.00000000     0.00000000
 O      1   0   0     2.500000000000     0.00000000     0.00000000

---------------------------
INTERNAL COORDINATES (A.U.)
---------------------------
 C      0   0   0     0.000000000000     0.00000000     0.00000000
 O      1   0   0     4.724315334803     0.00000000     0.00000000

---------------------
BASIS SET INFORMATION
---------------------
There are 2 groups of distinct atoms

 Group   1 Type C   : 6s3p contracted to 3s2p pattern {321/21}
 Group   2 Type O   : 6s3p contracted to 3s2p pattern {321/21}

Atom   0C    basis set group =>   1
Atom   1O    basis set group =>   2
------------------------------------------------------------------------------
                           ORCA GTO INTEGRAL CALCULATION
------------------------------------------------------------------------------

                         BASIS SET STATISTICS AND STARTUP INFO

 # of primitive gaussian shells          ...   18
 # of primitive gaussian functions       ...   30
 # of contracted shells                  ...   10
 # of contracted basis functions         ...   18
 Highest angular momentum                ...    1
 Maximum contraction depth               ...    3
 Integral package used                   ... LIBINT
 Integral threshhold            Thresh   ...  2.500e-11
 Primitive cut-off              TCut     ...  2.500e-12


------------------------------ INTEGRAL EVALUATION ----------------------------


 * One electron integrals 
 Pre-screening matrix                    ... done
 Shell pair data                         ... done (   0.000 sec)

-------------------------------------------------------------------------------
                                 ORCA SCF
-------------------------------------------------------------------------------

------------
SCF SETTINGS
------------
Hamiltonian:
 Ab initio Hamiltonian  Method          .... Hartree-Fock(GTOs)


General Settings:
 Integral files         IntName         .... actividad2_Q2002B
 Hartree-Fock type      HFTyp           .... RHF
 Total Charge           Charge          ....    0
 Multiplicity           Mult            ....    1
 Number of Electrons    NEL             ....   14
 Basis Dimension        Dim             ....   18
 Nuclear Repulsion      ENuc            ....     10.1602023994 Eh

Convergence Acceleration:
 DIIS                   CNVDIIS         .... on
   Start iteration      DIISMaxIt       ....    12
   Startup error        DIISStart       ....  0.200000
   # of expansion vecs  DIISMaxEq       ....     5
   Bias factor          DIISBfac        ....   1.050
   Max. coefficient     DIISMaxC        ....  10.000
 Newton-Raphson         CNVNR           .... off
 SOSCF                  CNVSOSCF        .... on
   Start iteration      SOSCFMaxIt      ....   150
   Startup grad/error   SOSCFStart      ....  0.003300
 Level Shifting         CNVShift        .... on
   Level shift para.    LevelShift      ....    0.2500
   Turn off err/grad.   ShiftErr        ....    0.0010
 Zerner damping         CNVZerner       .... off
 Static damping         CNVDamp         .... on
   Fraction old density DampFac         ....    0.7000
   Max. Damping (<1)    DampMax         ....    0.9800
   Min. Damping (>=0)   DampMin         ....    0.0000
   Turn off err/grad.   DampErr         ....    0.1000
 Fernandez-Rico         CNVRico         .... off

SCF Procedure:
 Maximum # iterations   MaxIter         ....   125
 SCF integral mode      SCFMode         .... Direct
   Integral package                     .... LIBINT
 Reset frequency        DirectResetFreq ....    20
 Integral Threshold     Thresh          ....  2.500e-11 Eh
 Primitive CutOff       TCut            ....  2.500e-12 Eh

Convergence Tolerance:
 Convergence Check Mode ConvCheckMode   .... Total+1el-Energy
 Convergence forced     ConvForced      .... 0
 Energy Change          TolE            ....  1.000e-08 Eh
 1-El. energy change                    ....  1.000e-05 Eh
 Orbital Gradient       TolG            ....  1.000e-05
 Orbital Rotation angle TolX            ....  1.000e-05
 DIIS Error             TolErr          ....  5.000e-07


Diagonalization of the overlap matrix:
Smallest eigenvalue                        ... 2.114e-01
Time for diagonalization                   ...    0.000 sec
Threshold for overlap eigenvalues          ... 1.000e-08
Number of eigenvalues below threshold      ... 0
Time for construction of square roots      ...    0.000 sec
Total time needed                          ...    0.000 sec

-------------------
DFT GRID GENERATION
-------------------

General Integration Accuracy     IntAcc      ...  4.340
Radial Grid Type                 RadialGrid  ... Gauss-Chebyshev
Angular Grid (max. acc.)         AngularGrid ... Lebedev-110
Angular grid pruning method      GridPruning ... 3 (G Style)
Weight generation scheme         WeightScheme... Becke
Basis function cutoff            BFCut       ...    1.0000e-11
Integration weight cutoff        WCut        ...    1.0000e-14
Grids for H and He will be reduced by one unit

# of grid points (after initial pruning)     ...   3372 (   0.0 sec)
# of grid points (after weights+screening)   ...   3355 (   0.0 sec)
nearest neighbour list constructed           ...    0.0 sec
Grid point re-assignment to atoms done       ...    0.0 sec
Grid point division into batches done        ...    0.0 sec
Reduced shell lists constructed in    0.0 sec

Total number of grid points                  ...     3355
Total number of batches                      ...       54
Average number of points per batch           ...       62
Average number of grid points per atom       ...     1678
Average number of shells per batch           ...     7.58 (75.82%)
Average number of basis functions per batch  ...    14.60 (81.11%)
Average number of large shells per batch     ...     6.73 (88.73%)
Average number of large basis fcns per batch ...    13.05 (89.41%)
Maximum spatial batch extension              ...  25.60, 31.36, 17.79 au
Average spatial batch extension              ...   7.05,  7.17,  6.05 au

Time for grid setup =    0.011 sec

------------------------------
INITIAL GUESS: MODEL POTENTIAL
------------------------------
Loading Hartree-Fock densities                     ... done
Calculating cut-offs                               ... done
Setting up the integral package                    ... done
Initializing the effective Hamiltonian             ... done
Starting the Coulomb interaction                   ... done (   0.0 sec)
Reading the grid                                   ... done
Mapping shells                                     ... done
Starting the XC term evaluation                    ... done (   0.0 sec)
Transforming the Hamiltonian                       ... done (   0.0 sec)
Diagonalizing the Hamiltonian                      ... done (   0.0 sec)
Back transforming the eigenvectors                 ... done (   0.0 sec)
Now organizing SCF variables                       ... done
                      ------------------
                      INITIAL GUESS DONE (   0.1 sec)
                      ------------------
--------------
SCF ITERATIONS
--------------
ITER       Energy         Delta-E        Max-DP      RMS-DP      [F,P]     Damp
               ***  Starting incremental Fock matrix formation  ***
  0   -110.5495601387   0.000000000000 0.25683483  0.04500388  0.6851260 0.7000
  1   -111.0014837443  -0.451923605629 0.08620579  0.01330150  0.1369802 0.7000
                               ***Turning on DIIS***
  2   -111.1116699280  -0.110186183660 0.05316803  0.00917351  0.1005327 0.7000
  3   -111.2748309008  -0.163160972781 0.15595725  0.02242843  0.0994461 0.0000
  4   -111.7907538044  -0.515922903599 0.00355905  0.00065462  0.4078915 0.7000
  5   -111.7973516499  -0.006597845477 0.00442797  0.00079148  0.4120776 0.7000
  6   -111.8061813101  -0.008829660291 0.00411200  0.00071977  0.4174229 0.7000
  7   -111.7712412571   0.034940053067 0.00543258  0.00069703  0.4225081 0.7000
  8   -111.3479453017   0.423295955420 0.09736391  0.01963377  0.4155867 0.7000
  9   -111.3349321699   0.013013131756 0.16096793  0.02198456  0.0699211 0.0000
 10   -110.7067358946   0.628196275347 0.01993103  0.00414289  0.3897514 0.7000
 11   -110.8833172204  -0.176581325816 0.02258114  0.00478877  0.3021636 0.7000
 12   -111.0870128038  -0.203695583472 0.01993537  0.00420788  0.2107018 0.7000
 13   -111.2544496359  -0.167436832022 0.01595163  0.00323271  0.1395491 0.7000
 14   -111.4058204764  -0.151370840576 0.05649814  0.01266798  0.0931351 0.0000
 15   -111.6612199749  -0.255399498415 0.00499825  0.00070672  0.1340172 0.7000
 16   -111.6589206304   0.002299344412 0.00947735  0.00139875  0.1338438 0.7000
 17   -111.6587012982   0.000219332249 0.01289882  0.00196434  0.1313890 0.7000
 18   -111.6589452575  -0.000243959348 0.01343623  0.00209643  0.1271788 0.7000
 19   -111.6132956121   0.045649645471 0.03029704  0.00472405  0.1227375 0.7000
               *** Restarting incremental Fock matrix formation ***
                                   *** Resetting DIIS ***
 20   -111.5970719390   0.016223673060 0.02553060  0.00402237  0.1035499 0.7000
 21   -111.6316841376  -0.034612198579 0.07445805  0.01325474  0.0867973 0.0000
 22   -111.7076732594  -0.075989121857 0.05793072  0.01073295  0.0474053 0.0000
 23   -111.6934207273   0.014252532184 0.02462279  0.00360556  0.0198789 0.0000
 24   -111.6845161146   0.008904612682 0.00395824  0.00060744  0.0044797 0.0000
                      *** Initiating the SOSCF procedure ***
                           *** Shutting down DIIS ***
                      *** Re-Reading the Fockian *** 
                      *** Removing any level shift *** 
ITER      Energy       Delta-E        Grad      Rot      Max-DP    RMS-DP
 25   -111.68167073   0.0028453823  0.001692  0.001692  0.002070  0.000298
               *** Restarting incremental Fock matrix formation ***
 26   -111.68101680   0.0006539306  0.000421  0.000790  0.000692  0.000094
 27   -111.68101891  -0.0000021113  0.000163  0.000498  0.000431  0.000055
 28   -111.68101927  -0.0000003608  0.000021  0.000046  0.000036  0.000005
 29   -111.68101928  -0.0000000034  0.000009  0.000018  0.000028  0.000003
                 **** Energy Check signals convergence ****
              ***Rediagonalizing the Fockian in SOSCF/NRSCF***

               *****************************************************
               *                     SUCCESS                       *
               *           SCF CONVERGED AFTER  30 CYCLES          *
               *****************************************************


----------------
TOTAL SCF ENERGY
----------------

Total Energy       :         -111.68101928 Eh           -3038.99503 eV

Components:
Nuclear Repulsion  :           10.16020240 Eh             276.47316 eV
Electronic Energy  :         -121.84122168 Eh           -3315.46820 eV
One Electron Energy:         -173.41762715 Eh           -4718.93354 eV
Two Electron Energy:           51.57640548 Eh            1403.46534 eV

Virial components:
Potential Energy   :         -222.88758162 Eh           -6065.07944 eV
Kinetic Energy     :          111.20656234 Eh            3026.08440 eV
Virial Ratio       :            2.00426645


---------------
SCF CONVERGENCE
---------------

  Last Energy change         ...   -5.5108e-10  Tolerance :   1.0000e-08
  Last MAX-Density change    ...    1.5233e-06  Tolerance :   1.0000e-07
  Last RMS-Density change    ...    2.0838e-07  Tolerance :   5.0000e-09
  Last Orbital Gradient      ...    1.1958e-06  Tolerance :   1.0000e-05
  Last Orbital Rotation      ...    1.3379e-06  Tolerance :   1.0000e-05

             **** THE GBW FILE WAS UPDATED (actividad2_Q2002B.gbw) ****
             **** DENSITY FILE WAS UPDATED (actividad2_Q2002B.scfp) ****
             **** ENERGY FILE WAS UPDATED (actividad2_Q2002B.en.tmp) ****
             **** THE GBW FILE WAS UPDATED (actividad2_Q2002B.gbw) ****
             **** DENSITY FILE WAS UPDATED (actividad2_Q2002B.scfp) ****
----------------
ORBITAL ENERGIES
----------------

  NO   OCC          E(Eh)            E(eV) 
   0   2.0000     -20.506174      -558.0014 
   1   2.0000     -11.341054      -308.6058 
   2   2.0000      -1.171937       -31.8900 
   3   2.0000      -0.745360       -20.2823 
   4   2.0000      -0.494301       -13.4506 
   5   2.0000      -0.494301       -13.4506 
   6   2.0000      -0.379282       -10.3208 
   7   0.0000       0.037618         1.0236 
   8   0.0000       0.037618         1.0236 
   9   0.0000       0.102827         2.7981 
  10   0.0000       0.943335        25.6695 
  11   0.0000       0.943335        25.6695 
  12   0.0000       0.956468        26.0268 
  13   0.0000       1.243401        33.8347 
  14   0.0000       1.770201        48.1696 
  15   0.0000       1.770201        48.1696 
  16   0.0000       1.907175        51.8969 
  17   0.0000       2.621377        71.3313 

                    ********************************
                    * MULLIKEN POPULATION ANALYSIS *
                    ********************************

-----------------------
MULLIKEN ATOMIC CHARGES
-----------------------
   0 C :    0.093178
   1 O :   -0.093178
Sum of atomic charges:    0.0000000

--------------------------------
MULLIKEN REDUCED ORBITAL CHARGES
--------------------------------
  0 C s       :     3.993262  s :     3.993262
      pz      :     1.904724  p :     1.913559
      px      :     0.004418
      py      :     0.004418
  1 O s       :     3.998066  s :     3.998066
      pz      :     0.103948  p :     4.095112
      px      :     1.995582
      py      :     1.995582


                     *******************************
                     * LOEWDIN POPULATION ANALYSIS *
                     *******************************

----------------------
LOEWDIN ATOMIC CHARGES
----------------------
   0 C :    0.102613
   1 O :   -0.102613

-------------------------------
LOEWDIN REDUCED ORBITAL CHARGES
-------------------------------
  0 C s       :     3.989057  s :     3.989057
      pz      :     1.898884  p :     1.908330
      px      :     0.004723
      py      :     0.004723
  1 O s       :     3.993886  s :     3.993886
      pz      :     0.118173  p :     4.108727
      px      :     1.995277
      py      :     1.995277

-------------------------------
LOEWDIN ATOM POPULATIONS PER MO
-------------------------------
THRESHOLD FOR PRINTING IS 0.1%
                      0         1         2         3         4         5   
                 -20.50617 -11.34105  -1.17194  -0.74536  -0.49430  -0.49430
                   2.00000   2.00000   2.00000   2.00000   2.00000   2.00000
                  --------  --------  --------  --------  --------  --------
  0 C                 0.0     100.0       1.1      99.0       0.2       0.2
  1 O               100.0       0.0      98.9       1.0      99.8      99.8

                      6         7         8         9        10        11   
                  -0.37928   0.03762   0.03762   0.10283   0.94334   0.94334
                   2.00000   0.00000   0.00000   0.00000   0.00000   0.00000
                  --------  --------  --------  --------  --------  --------
  0 C                94.3      99.8      99.8       6.8      99.7      99.7
  1 O                 5.7       0.2       0.2      93.2       0.3       0.3

                     12        13        14        15        16        17   
                   0.95647   1.24340   1.77020   1.77020   1.90718   2.62138
                   0.00000   0.00000   0.00000   0.00000   0.00000   0.00000
                  --------  --------  --------  --------  --------  --------
  0 C                96.9      95.1       0.3       0.3       4.7       2.0
  1 O                 3.1       4.9      99.7      99.7      95.3      98.0


----------------------------------
LOEWDIN ORBITAL POPULATIONS PER MO
----------------------------------
THRESHOLD FOR PRINTING IS 0.1%
                      0         1         2         3         4         5   
                 -20.50617 -11.34105  -1.17194  -0.74536  -0.49430  -0.49430
                   2.00000   2.00000   2.00000   2.00000   2.00000   2.00000
                  --------  --------  --------  --------  --------  --------
  0C   1s              0.0      97.1       0.0       2.4       0.0       0.0
  0C   2s              0.0       2.2       0.0      31.6       0.0       0.0
  0C   3s              0.0       0.8       0.3      65.0       0.0       0.0
  0C   2pz             0.0       0.0       0.7       0.0       0.0       0.0
  0C   2px             0.0       0.0       0.0       0.0       0.2       0.0
  0C   2py             0.0       0.0       0.0       0.0       0.0       0.2
  1O   1s             96.5       0.0       2.7       0.0       0.0       0.0
  1O   2s              2.7       0.0      28.9       0.2       0.0       0.0
  1O   1px             0.0       0.0       0.0       0.0      42.2       4.6
  1O   1py             0.0       0.0       0.0       0.0       4.6      42.2
  1O   3s              0.8       0.0      67.2       0.2       0.0       0.0
  1O   2pz             0.0       0.0       0.0       0.6       0.0       0.0
  1O   2px             0.0       0.0       0.0       0.0      47.7       5.2
  1O   2py             0.0       0.0       0.0       0.0       5.2      47.7

                      6         7         8         9        10        11   
                  -0.37928   0.03762   0.03762   0.10283   0.94334   0.94334
                   2.00000   0.00000   0.00000   0.00000   0.00000   0.00000
                  --------  --------  --------  --------  --------  --------
  0C   2s              0.0       0.0       0.0       0.7       0.0       0.0
  0C   1pz            43.9       0.0       0.0       5.1       0.0       0.0
  0C   1px             0.0      25.8      10.3       0.0       0.4      63.4
  0C   1py             0.0      10.3      25.8       0.0      63.4       0.4
  0C   2pz            50.3       0.0       0.0       0.9       0.0       0.0
  0C   2px             0.0      45.6      18.2       0.0       0.2      35.6
  0C   2py             0.0      18.2      45.6       0.0      35.6       0.2
  1O   2s              0.2       0.0       0.0       0.0       0.0       0.0
  1O   1pz             1.3       0.0       0.0      37.4       0.0       0.0
  1O   1px             0.0       0.1       0.1       0.0       0.0       0.3
  1O   1py             0.0       0.1       0.1       0.0       0.3       0.0
  1O   3s              0.2       0.0       0.0       0.0       0.0       0.0
  1O   2pz             4.0       0.0       0.0      55.7       0.0       0.0

                     12        13        14        15        16        17   
                   0.95647   1.24340   1.77020   1.77020   1.90718   2.62138
                   0.00000   0.00000   0.00000   0.00000   0.00000   0.00000
                  --------  --------  --------  --------  --------  --------
  0C   1s              0.0       0.5       0.0       0.0       0.0       0.0
  0C   2s              0.4      62.9       0.0       0.0       1.7       0.5
  0C   1pz            50.2       0.1       0.0       0.0       0.4       0.3
  0C   1px             0.0       0.0       0.1       0.0       0.0       0.0
  0C   1py             0.0       0.0       0.0       0.1       0.0       0.0
  0C   3s              0.2      31.6       0.0       0.0       1.5       0.5
  0C   2pz            46.2       0.1       0.0       0.0       1.2       0.7
  0C   2px             0.0       0.0       0.2       0.0       0.0       0.0
  0C   2py             0.0       0.0       0.0       0.2       0.0       0.0
  1O   1s              0.0       0.0       0.0       0.0       0.0       0.7
  1O   2s              0.8       0.6       0.0       0.0       1.6      64.9
  1O   1pz             2.3       3.5       0.0       0.0      54.8       0.6
  1O   1px             0.0       0.0      46.6       6.1       0.0       0.0
  1O   1py             0.0       0.0       6.1      46.6       0.0       0.0
  1O   3s              0.0       0.1       0.0       0.0       0.5      31.0
  1O   2pz             0.0       0.7       0.0       0.0      38.4       0.7
  1O   2px             0.0       0.0      41.5       5.5       0.0       0.0
  1O   2py             0.0       0.0       5.5      41.5       0.0       0.0



                      *****************************
                      * MAYER POPULATION ANALYSIS *
                      *****************************

  NA   - Mulliken gross atomic population
  ZA   - Total nuclear charge
  QA   - Mulliken gross atomic charge
  VA   - Mayer's total valence
  BVA  - Mayer's bonded valence
  FA   - Mayer's free valence

  ATOM       NA         ZA         QA         VA         BVA        FA
  0 C      5.9068     6.0000     0.0932     0.2128     0.2128    -0.0000
  1 O      8.0932     8.0000    -0.0932     0.2128     0.2128     0.0000

  Mayer bond orders larger than 0.100000
B(  0-C ,  1-O ) :   0.2128 

-------
TIMINGS
-------

Total SCF time: 0 days 0 hours 0 min 2 sec 

Total time                  ....       2.521 sec
Sum of individual times     ....       2.328 sec  ( 92.4%)

Fock matrix formation       ....       2.157 sec  ( 85.6%)
Diagonalization             ....       0.003 sec  (  0.1%)
Density matrix formation    ....       0.000 sec  (  0.0%)
Population analysis         ....       0.002 sec  (  0.1%)
Initial guess               ....       0.110 sec  (  4.4%)
Orbital Transformation      ....       0.000 sec  (  0.0%)
Orbital Orthonormalization  ....       0.000 sec  (  0.0%)
DIIS solution               ....       0.003 sec  (  0.1%)
SOSCF solution              ....       0.041 sec  (  1.6%)

-------------------------   --------------------
FINAL SINGLE POINT ENERGY      -111.681019277894
-------------------------   --------------------

------------------------------------------------------------------------------
                         ORCA SCF GRADIENT CALCULATION
------------------------------------------------------------------------------

Gradient of the Hartree-Fock SCF energy:
Hartree-Fock type                ... RHF
Number of operators              ...    1
Number of atoms                  ...    2
Basis set dimensions             ...   18
Integral neglect threshold       ... 2.5e-11
Integral primitive cutoff        ... 2.5e-12

Nuclear repulsion gradient       ... done
One Electron Gradient            ... done
Pre-screening matrix             ... done
Starting the two electron gradient:
Two electron gradient done

------------------
CARTESIAN GRADIENT
------------------

   1   C   :   -0.000000000    0.000000000   -0.024668926
   2   O   :    0.000000000   -0.000000000    0.024668926

Difference to translation invariance:
           :    0.0000000000    0.0000000000   -0.0000000000

Norm of the cartesian gradient     ...    0.0348871299
RMS gradient                       ...    0.0142426111
MAX gradient                       ...    0.0246689261

-------
TIMINGS
-------

Total SCF gradient time            ...        0.124 sec

One electron gradient       ....       0.000 sec  (  0.3%)
Prescreening matrices       ....       0.000 sec  (  0.2%)
Two electron gradient       ....       0.004 sec  (  3.0%)
------------------------------------------------------------------------------
                         ORCA GEOMETRY RELAXATION STEP
------------------------------------------------------------------------------

Reading the OPT-File                    .... done
Getting information on internals        .... done
Copying old internal coords+grads       .... done
Making the new internal coordinates     .... (new redundants).... done
Validating the new internal coordinates .... (new redundants).... done
Calculating the B-matrix                .... done
Calculating the G,G- and P matrices     .... done
Transforming gradient to internals      .... done
Projecting the internal gradient        .... done
Number of atoms                         ....   2
Number of internal coordinates          ....   1
Current Energy                          ....  -111.681019278 Eh
Current gradient norm                   ....     0.034887130 Eh/bohr
Maximum allowed component of the step   ....  0.300
Current trust radius                    ....  0.300
Evaluating the initial hessian          ....  (Almloef) done
Projecting the Hessian                  .... done
Forming the augmented Hessian           .... done
Diagonalizing the augmented Hessian     .... done
Last element of RFO vector              ....  0.770956750
Lowest eigenvalues of augmented Hessian:
 -0.020379004
Length of the computed step             ....  0.826100170
Warning: the length of the step is outside the trust region - taking restricted step instead
The input lambda is                     ....    -0.020379
   iter:   1  x=   -0.033341  g=   45.706492 f(x)=     0.592441
   iter:   2  x=   -0.048946  g=   15.498000 f(x)=     0.241841
   iter:   3  x=   -0.063410  g=    6.101789 f(x)=     0.088259
   iter:   4  x=   -0.071217  g=    3.142494 f(x)=     0.024533
   iter:   5  x=   -0.072704  g=    2.315872 f(x)=     0.003445
   iter:   6  x=   -0.072747  g=    2.192381 f(x)=     0.000093
   iter:   7  x=   -0.072747  g=    2.188991 f(x)=     0.000000
   iter:   8  x=   -0.072747  g=    2.188989 f(x)=     0.000000
   iter:   9  x=   -0.072747  g=    2.188989 f(x)=     0.000000
The output lambda is                    ....    -0.072747 (9 iterations)
The final length of the internal step   ....  0.300000000
Converting the step to cartesian space:
 Initial RMS(Int)=    0.3000000000
Transforming coordinates:
 Iter   0:  RMS(Cart)=    0.0866025404 RMS(Int)=    0.3000000000
 Iter   1:  RMS(Cart)=    0.0000000000 RMS(Int)=    0.0000000000
done
Storing new coordinates                 .... done

                                .--------------------.
          ----------------------|Geometry convergence|-------------------------
          Item                value                   Tolerance       Converged
          ---------------------------------------------------------------------
          RMS gradient        0.0246689261            0.0001000000      NO
          MAX gradient        0.0246689261            0.0003000000      NO
          RMS step            0.3000000000            0.0020000000      NO
          MAX step            0.3000000000            0.0040000000      NO
          ........................................................
          Max(Bonds)      0.1588      Max(Angles)    0.00
          Max(Dihed)        0.00      Max(Improp)    0.00
          ---------------------------------------------------------------------

The optimization has not yet converged - more geometry cycles are needed


    ---------------------------------------------------------------------------
                         Redundant Internal Coordinates
                            (Angstroem and degrees)

        Definition                    Value    dE/dq     Step     New-Value
    ----------------------------------------------------------------------------
     1. B(O   1,C   0)                2.5000  0.024669 -0.1588    2.3412   
    ----------------------------------------------------------------------------

         *************************************************************
         *                GEOMETRY OPTIMIZATION CYCLE   2            *
         *************************************************************
---------------------------------
CARTESIAN COORDINATES (ANGSTROEM)
---------------------------------
  C      0.000000    0.000000    0.079377
  O      0.000000    0.000000    2.420623

----------------------------
CARTESIAN COORDINATES (A.U.)
----------------------------
  NO LB      ZA    FRAG     MASS         X           Y           Z
   0 C     6.0000    0    12.011    0.000000    0.000000    0.150000
   1 O     8.0000    0    15.999    0.000000    0.000000    4.574315

--------------------------------
INTERNAL COORDINATES (ANGSTROEM)
--------------------------------
 C      0   0   0     0.000000000000     0.00000000     0.00000000
 O      1   0   0     2.341246837510     0.00000000     0.00000000

---------------------------
INTERNAL COORDINATES (A.U.)
---------------------------
 C      0   0   0     0.000000000000     0.00000000     0.00000000
 O      1   0   0     4.424315334803     0.00000000     0.00000000


Diagonalization of the overlap matrix:
Smallest eigenvalue                        ... 1.943e-01
Time for diagonalization                   ...    0.000 sec
Threshold for overlap eigenvalues          ... 1.000e-08
Number of eigenvalues below threshold      ... 0
Time for construction of square roots      ...    0.000 sec
Total time needed                          ...    0.000 sec

--------------
SCF ITERATIONS
--------------
ITER       Energy         Delta-E        Max-DP      RMS-DP      [F,P]     Damp
               ***  Starting incremental Fock matrix formation  ***
  0   -111.6884159141   0.000000000000 0.00326047  0.00047408  0.0240325 0.7000
  1   -111.6886808774  -0.000264963308 0.00326597  0.00049417  0.0202298 0.7000
                               ***Turning on DIIS***
  2   -111.6889251539  -0.000244276472 0.00945421  0.00146406  0.0165408 0.0000
  3   -111.6872326523   0.001692501590 0.00525707  0.00078854  0.0062677 0.0000
                      *** Initiating the SOSCF procedure ***
                           *** Shutting down DIIS ***
                      *** Re-Reading the Fockian *** 
                      *** Removing any level shift *** 
ITER      Energy       Delta-E        Grad      Rot      Max-DP    RMS-DP
  4   -111.69002992  -0.0027972711  0.003004  0.003004  0.002710  0.000426
               *** Restarting incremental Fock matrix formation ***
  5   -111.68990697   0.0001229553  0.000779  0.001533  0.001183  0.000177
  6   -111.68991468  -0.0000077099  0.000332  0.001264  0.000941  0.000164
  7   -111.68991696  -0.0000022813  0.000029  0.000027  0.000036  0.000005
  8   -111.68991696  -0.0000000037  0.000011  0.000006  0.000009  0.000001
                 **** Energy Check signals convergence ****
              ***Rediagonalizing the Fockian in SOSCF/NRSCF***

               *****************************************************
               *                     SUCCESS                       *
               *           SCF CONVERGED AFTER   9 CYCLES          *
               *****************************************************

Total Energy       :         -111.68991696 Eh           -3039.23715 eV
  Last Energy change         ...   -3.4417e-10  Tolerance :   1.0000e-08
  Last MAX-Density change    ...    1.8922e-06  Tolerance :   1.0000e-07
             **** THE GBW FILE WAS UPDATED (actividad2_Q2002B.gbw) ****
             **** DENSITY FILE WAS UPDATED (actividad2_Q2002B.scfp) ****
             **** ENERGY FILE WAS UPDATED (actividad2_Q2002B.en.tmp) ****
             **** THE GBW FILE WAS UPDATED (actividad2_Q2002B.gbw) ****
             **** DENSITY FILE WAS UPDATED (actividad2_Q2002B.scfp) ****
Total SCF time: 0 days 0 hours 0 min 0 sec 

-------------------------   --------------------
FINAL SINGLE POINT ENERGY      -111.689916963282
-------------------------   --------------------

------------------------------------------------------------------------------
                         ORCA SCF GRADIENT CALCULATION
------------------------------------------------------------------------------

Gradient of the Hartree-Fock SCF energy:
Hartree-Fock type                ... RHF
Number of operators              ...    1
Number of atoms                  ...    2
Basis set dimensions             ...   18
Integral neglect threshold       ... 2.5e-11
Integral primitive cutoff        ... 2.5e-12

Nuclear repulsion gradient       ... done
One Electron Gradient            ... done
Pre-screening matrix             ... done
Starting the two electron gradient:
Two electron gradient done

------------------
CARTESIAN GRADIENT
------------------

   1   C   :   -0.000000000    0.000000000   -0.035399399
   2   O   :    0.000000000   -0.000000000    0.035399399

Difference to translation invariance:
           :    0.0000000000   -0.0000000000   -0.0000000000

Norm of the cartesian gradient     ...    0.0500623095
RMS gradient                       ...    0.0204378523
MAX gradient                       ...    0.0353993985

-------
TIMINGS
-------

Total SCF gradient time            ...        0.138 sec

One electron gradient       ....       0.000 sec  (  0.3%)
Prescreening matrices       ....       0.000 sec  (  0.2%)
Two electron gradient       ....       0.004 sec  (  2.8%)
------------------------------------------------------------------------------
                         ORCA GEOMETRY RELAXATION STEP
------------------------------------------------------------------------------

Reading the OPT-File                    .... done
Getting information on internals        .... done
Copying old internal coords+grads       .... done
Making the new internal coordinates     .... (new redundants).... done
Validating the new internal coordinates .... (new redundants).... done
Calculating the B-matrix                .... done
Calculating the G,G- and P matrices     .... done
Transforming gradient to internals      .... done
Projecting the internal gradient        .... done
Number of atoms                         ....   2
Number of internal coordinates          ....   1
Current Energy                          ....  -111.689916963 Eh
Current gradient norm                   ....     0.050062309 Eh/bohr
Maximum allowed component of the step   ....  0.300
Current trust radius                    ....  0.300
Updating the Hessian (BFGS)             .... done
Forming the augmented Hessian           .... done
Diagonalizing the augmented Hessian     .... done
Last element of RFO vector              ....  0.523961008
Lowest eigenvalues of augmented Hessian:
 -0.057544670
Length of the computed step             ....  1.625583275
Warning: the length of the step is outside the trust region - taking restricted step instead
The input lambda is                     ....    -0.057545
   iter:   1  x=   -0.068062  g=  242.695532 f(x)=     2.552521
   iter:   2  x=   -0.083000  g=   74.415598 f(x)=     1.111582
   iter:   3  x=   -0.102832  g=   23.786601 f(x)=     0.471736
   iter:   4  x=   -0.125532  g=    8.309353 f(x)=     0.188626
   iter:   5  x=   -0.144441  g=    3.465122 f(x)=     0.065521
   iter:   6  x=   -0.152690  g=    1.952820 f(x)=     0.016109
   iter:   7  x=   -0.153752  g=    1.567968 f(x)=     0.001665
   iter:   8  x=   -0.153766  g=    1.526019 f(x)=     0.000022
   iter:   9  x=   -0.153766  g=    1.525450 f(x)=     0.000000
   iter:  10  x=   -0.153766  g=    1.525450 f(x)=     0.000000
The output lambda is                    ....    -0.153766 (10 iterations)
The final length of the internal step   ....  0.300000000
Converting the step to cartesian space:
 Initial RMS(Int)=    0.3000000000
Transforming coordinates:
 Iter   0:  RMS(Cart)=    0.0866025404 RMS(Int)=    0.3000000000
 Iter   1:  RMS(Cart)=    0.0000000000 RMS(Int)=    0.0000000000
done
Storing new coordinates                 .... done

                                .--------------------.
          ----------------------|Geometry convergence|-------------------------
          Item                value                   Tolerance       Converged
          ---------------------------------------------------------------------
          Energy change      -0.0088976854            0.0000050000      NO
          RMS gradient        0.0353993985            0.0001000000      NO
          MAX gradient        0.0353993985            0.0003000000      NO
          RMS step            0.3000000000            0.0020000000      NO
          MAX step            0.3000000000            0.0040000000      NO
          ........................................................
          Max(Bonds)      0.1588      Max(Angles)    0.00
          Max(Dihed)        0.00      Max(Improp)    0.00
          ---------------------------------------------------------------------

The optimization has not yet converged - more geometry cycles are needed


    ---------------------------------------------------------------------------
                         Redundant Internal Coordinates
                            (Angstroem and degrees)

        Definition                    Value    dE/dq     Step     New-Value
    ----------------------------------------------------------------------------
     1. B(O   1,C   0)                2.3412  0.035399 -0.1588    2.1825   
    ----------------------------------------------------------------------------

         *************************************************************
         *                GEOMETRY OPTIMIZATION CYCLE   3            *
         *************************************************************
---------------------------------
CARTESIAN COORDINATES (ANGSTROEM)
---------------------------------
  C      0.000000    0.000000    0.158753
  O      0.000000    0.000000    2.341247

----------------------------
CARTESIAN COORDINATES (A.U.)
----------------------------
  NO LB      ZA    FRAG     MASS         X           Y           Z
   0 C     6.0000    0    12.011    0.000000    0.000000    0.300000
   1 O     8.0000    0    15.999    0.000000    0.000000    4.424315

--------------------------------
INTERNAL COORDINATES (ANGSTROEM)
--------------------------------
 C      0   0   0     0.000000000000     0.00000000     0.00000000
 O      1   0   0     2.182493675020     0.00000000     0.00000000

---------------------------
INTERNAL COORDINATES (A.U.)
---------------------------
 C      0   0   0     0.000000000000     0.00000000     0.00000000
 O      1   0   0     4.124315334803     0.00000000     0.00000000


Diagonalization of the overlap matrix:
Smallest eigenvalue                        ... 1.733e-01
Time for diagonalization                   ...    0.000 sec
Threshold for overlap eigenvalues          ... 1.000e-08
Number of eigenvalues below threshold      ... 0
Time for construction of square roots      ...    0.000 sec
Total time needed                          ...    0.001 sec

--------------
SCF ITERATIONS
--------------
ITER       Energy         Delta-E        Max-DP      RMS-DP      [F,P]     Damp
               ***  Starting incremental Fock matrix formation  ***
  0   -111.7002876725   0.000000000000 0.00427336  0.00061642  0.0283938 0.7000
  1   -111.7007133543  -0.000425681727 0.00462481  0.00064927  0.0240429 0.7000
                               ***Turning on DIIS***
  2   -111.7011132371  -0.000399882839 0.01384112  0.00194277  0.0198097 0.0000
  3   -111.6995001006   0.001613136454 0.00789243  0.00117175  0.0080528 0.0000
  4   -111.7039725862  -0.004472485513 0.00397626  0.00070491  0.0043075 0.0000
                      *** Initiating the SOSCF procedure ***
                           *** Shutting down DIIS ***
                      *** Re-Reading the Fockian *** 
                      *** Removing any level shift *** 
ITER      Energy       Delta-E        Grad      Rot      Max-DP    RMS-DP
  5   -111.70242491   0.0015476729  0.002133  0.002133  0.002286  0.000383
               *** Restarting incremental Fock matrix formation ***
  6   -111.70290861  -0.0004836938  0.000503  0.001035  0.000844  0.000137
  7   -111.70291323  -0.0000046245  0.000278  0.001241  0.001022  0.000153
  8   -111.70291500  -0.0000017680  0.000078  0.000141  0.000100  0.000017
  9   -111.70291504  -0.0000000424  0.000040  0.000013  0.000040  0.000005
 10   -111.70291505  -0.0000000049  0.000006  0.000005  0.000013  0.000001
                 **** Energy Check signals convergence ****
              ***Rediagonalizing the Fockian in SOSCF/NRSCF***

               *****************************************************
               *                     SUCCESS                       *
               *           SCF CONVERGED AFTER  11 CYCLES          *
               *****************************************************

Total Energy       :         -111.70291505 Eh           -3039.59085 eV
  Last Energy change         ...   -1.9614e-10  Tolerance :   1.0000e-08
  Last MAX-Density change    ...    7.7904e-07  Tolerance :   1.0000e-07
             **** THE GBW FILE WAS UPDATED (actividad2_Q2002B.gbw) ****
             **** DENSITY FILE WAS UPDATED (actividad2_Q2002B.scfp) ****
             **** ENERGY FILE WAS UPDATED (actividad2_Q2002B.en.tmp) ****
             **** THE GBW FILE WAS UPDATED (actividad2_Q2002B.gbw) ****
             **** DENSITY FILE WAS UPDATED (actividad2_Q2002B.scfp) ****
Total SCF time: 0 days 0 hours 0 min 1 sec 

-------------------------   --------------------
FINAL SINGLE POINT ENERGY      -111.702915047164
-------------------------   --------------------

------------------------------------------------------------------------------
                         ORCA SCF GRADIENT CALCULATION
------------------------------------------------------------------------------

Gradient of the Hartree-Fock SCF energy:
Hartree-Fock type                ... RHF
Number of operators              ...    1
Number of atoms                  ...    2
Basis set dimensions             ...   18
Integral neglect threshold       ... 2.5e-11
Integral primitive cutoff        ... 2.5e-12

Nuclear repulsion gradient       ... done
One Electron Gradient            ... done
Pre-screening matrix             ... done
Starting the two electron gradient:
Two electron gradient done

------------------
CARTESIAN GRADIENT
------------------

   1   C   :   -0.000000000    0.000000000   -0.052875586
   2   O   :    0.000000000   -0.000000000    0.052875586

Difference to translation invariance:
           :    0.0000000000   -0.0000000000    0.0000000000

Norm of the cartesian gradient     ...    0.0747773710
RMS gradient                       ...    0.0305277339
MAX gradient                       ...    0.0528755861

-------
TIMINGS
-------

Total SCF gradient time            ...        0.139 sec

One electron gradient       ....       0.000 sec  (  0.3%)
Prescreening matrices       ....       0.000 sec  (  0.2%)
Two electron gradient       ....       0.004 sec  (  3.0%)
------------------------------------------------------------------------------
                         ORCA GEOMETRY RELAXATION STEP
------------------------------------------------------------------------------

Reading the OPT-File                    .... done
Getting information on internals        .... done
Copying old internal coords+grads       .... done
Making the new internal coordinates     .... (new redundants).... done
Validating the new internal coordinates .... (new redundants).... done
Calculating the B-matrix                .... done
Calculating the G,G- and P matrices     .... done
Transforming gradient to internals      .... done
Projecting the internal gradient        .... done
Number of atoms                         ....   2
Number of internal coordinates          ....   1
Current Energy                          ....  -111.702915047 Eh
Current gradient norm                   ....     0.074777371 Eh/bohr
Maximum allowed component of the step   ....  0.300
Current trust radius                    ....  0.300
Updating the Hessian (BFGS)             .... done
Forming the augmented Hessian           .... done
Diagonalizing the augmented Hessian     .... done
Last element of RFO vector              ....  0.508676649
Lowest eigenvalues of augmented Hessian:
 -0.089494260
Length of the computed step             ....  1.692544067
Warning: the length of the step is outside the trust region - taking restricted step instead
The input lambda is                     ....    -0.089494
   iter:   1  x=   -0.104624  g=  183.398068 f(x)=     2.774705
   iter:   2  x=   -0.126204  g=   56.083755 f(x)=     1.210294
   iter:   3  x=   -0.155129  g=   17.822772 f(x)=     0.515527
   iter:   4  x=   -0.188933  g=    6.150422 f(x)=     0.207911
   iter:   5  x=   -0.218354  g=    2.505642 f(x)=     0.073718
   iter:   6  x=   -0.232353  g=    1.362590 f(x)=     0.019075
   iter:   7  x=   -0.234467  g=    1.059614 f(x)=     0.002239
   iter:   8  x=   -0.234506  g=    1.021948 f(x)=     0.000040
   iter:   9  x=   -0.234506  g=    1.021266 f(x)=     0.000000
   iter:  10  x=   -0.234506  g=    1.021265 f(x)=     0.000000
The output lambda is                    ....    -0.234506 (10 iterations)
The final length of the internal step   ....  0.300000000
Converting the step to cartesian space:
 Initial RMS(Int)=    0.3000000000
Transforming coordinates:
 Iter   0:  RMS(Cart)=    0.0866025404 RMS(Int)=    0.3000000000
 Iter   1:  RMS(Cart)=    0.0000000000 RMS(Int)=    0.0000000000
done
Storing new coordinates                 .... done

                                .--------------------.
          ----------------------|Geometry convergence|-------------------------
          Item                value                   Tolerance       Converged
          ---------------------------------------------------------------------
          Energy change      -0.0129980839            0.0000050000      NO
          RMS gradient        0.0528755861            0.0001000000      NO
          MAX gradient        0.0528755861            0.0003000000      NO
          RMS step            0.3000000000            0.0020000000      NO
          MAX step            0.3000000000            0.0040000000      NO
          ........................................................
          Max(Bonds)      0.1588      Max(Angles)    0.00
          Max(Dihed)        0.00      Max(Improp)    0.00
          ---------------------------------------------------------------------

The optimization has not yet converged - more geometry cycles are needed


    ---------------------------------------------------------------------------
                         Redundant Internal Coordinates
                            (Angstroem and degrees)

        Definition                    Value    dE/dq     Step     New-Value
    ----------------------------------------------------------------------------
     1. B(O   1,C   0)                2.1825  0.052876 -0.1588    2.0237   
    ----------------------------------------------------------------------------

         *************************************************************
         *                GEOMETRY OPTIMIZATION CYCLE   4            *
         *************************************************************
---------------------------------
CARTESIAN COORDINATES (ANGSTROEM)
---------------------------------
  C      0.000000    0.000000    0.238130
  O      0.000000    0.000000    2.261870

----------------------------
CARTESIAN COORDINATES (A.U.)
----------------------------
  NO LB      ZA    FRAG     MASS         X           Y           Z
   0 C     6.0000    0    12.011    0.000000    0.000000    0.450000
   1 O     8.0000    0    15.999    0.000000    0.000000    4.274315

--------------------------------
INTERNAL COORDINATES (ANGSTROEM)
--------------------------------
 C      0   0   0     0.000000000000     0.00000000     0.00000000
 O      1   0   0     2.023740512530     0.00000000     0.00000000

---------------------------
INTERNAL COORDINATES (A.U.)
---------------------------
 C      0   0   0     0.000000000000     0.00000000     0.00000000
 O      1   0   0     3.824315334803     0.00000000     0.00000000


Diagonalization of the overlap matrix:
Smallest eigenvalue                        ... 1.508e-01
Time for diagonalization                   ...    0.000 sec
Threshold for overlap eigenvalues          ... 1.000e-08
Number of eigenvalues below threshold      ... 0
Time for construction of square roots      ...    0.000 sec
Total time needed                          ...    0.001 sec

--------------
SCF ITERATIONS
--------------
ITER       Energy         Delta-E        Max-DP      RMS-DP      [F,P]     Damp
               ***  Starting incremental Fock matrix formation  ***
  0   -111.7181450380   0.000000000000 0.00651076  0.00082393  0.0346466 0.7000
  1   -111.7188512606  -0.000706222550 0.00694458  0.00087973  0.0294701 0.7000
                               ***Turning on DIIS***
  2   -111.7195319229  -0.000680662321 0.02064066  0.00266947  0.0245300 0.0000
  3   -111.7189403969   0.000591525963 0.01235562  0.00185643  0.0111216 0.0000
  4   -111.7272750499  -0.008334653011 0.00770179  0.00135140  0.0074169 0.0000
  5   -111.7248447960   0.002430253899 0.00474465  0.00083374  0.0035023 0.0000
                      *** Initiating the SOSCF procedure ***
                           *** Shutting down DIIS ***
                      *** Re-Reading the Fockian *** 
                      *** Removing any level shift *** 
ITER      Energy       Delta-E        Grad      Rot      Max-DP    RMS-DP
  6   -111.72485074  -0.0000059414  0.002695  0.002695  0.002453  0.000459
               *** Restarting incremental Fock matrix formation ***
  7   -111.72318794   0.0016627938  0.000456  0.000979  0.000797  0.000120
  8   -111.72319133  -0.0000033906  0.000328  0.001313  0.000994  0.000182
  9   -111.72319317  -0.0000018365  0.000221  0.000117  0.000350  0.000036
 10   -111.72319331  -0.0000001427  0.000047  0.000053  0.000082  0.000010
 11   -111.72319333  -0.0000000196  0.000009  0.000018  0.000018  0.000002
                 **** Energy Check signals convergence ****
              ***Rediagonalizing the Fockian in SOSCF/NRSCF***

               *****************************************************
               *                     SUCCESS                       *
               *           SCF CONVERGED AFTER  12 CYCLES          *
               *****************************************************

Total Energy       :         -111.72319333 Eh           -3040.14265 eV
  Last Energy change         ...   -7.4881e-10  Tolerance :   1.0000e-08
  Last MAX-Density change    ...    8.4751e-07  Tolerance :   1.0000e-07
             **** THE GBW FILE WAS UPDATED (actividad2_Q2002B.gbw) ****
             **** DENSITY FILE WAS UPDATED (actividad2_Q2002B.scfp) ****
             **** ENERGY FILE WAS UPDATED (actividad2_Q2002B.en.tmp) ****
             **** THE GBW FILE WAS UPDATED (actividad2_Q2002B.gbw) ****
             **** DENSITY FILE WAS UPDATED (actividad2_Q2002B.scfp) ****
Total SCF time: 0 days 0 hours 0 min 1 sec 

-------------------------   --------------------
FINAL SINGLE POINT ENERGY      -111.723193333838
-------------------------   --------------------

------------------------------------------------------------------------------
                         ORCA SCF GRADIENT CALCULATION
------------------------------------------------------------------------------

Gradient of the Hartree-Fock SCF energy:
Hartree-Fock type                ... RHF
Number of operators              ...    1
Number of atoms                  ...    2
Basis set dimensions             ...   18
Integral neglect threshold       ... 2.5e-11
Integral primitive cutoff        ... 2.5e-12

Nuclear repulsion gradient       ... done
One Electron Gradient            ... done
Pre-screening matrix             ... done
Starting the two electron gradient:
Two electron gradient done

------------------
CARTESIAN GRADIENT
------------------

   1   C   :   -0.000000000    0.000000000   -0.086269069
   2   O   :    0.000000000   -0.000000000    0.086269069

Difference to translation invariance:
           :    0.0000000000    0.0000000000   -0.0000000000

Norm of the cartesian gradient     ...    0.1220028875
RMS gradient                       ...    0.0498074703
MAX gradient                       ...    0.0862690691

-------
TIMINGS
-------

Total SCF gradient time            ...        0.139 sec

One electron gradient       ....       0.001 sec  (  0.4%)
Prescreening matrices       ....       0.000 sec  (  0.2%)
Two electron gradient       ....       0.004 sec  (  3.0%)
------------------------------------------------------------------------------
                         ORCA GEOMETRY RELAXATION STEP
------------------------------------------------------------------------------

Reading the OPT-File                    .... done
Getting information on internals        .... done
Copying old internal coords+grads       .... done
Making the new internal coordinates     .... (new redundants).... done
Validating the new internal coordinates .... (new redundants).... done
Calculating the B-matrix                .... done
Calculating the G,G- and P matrices     .... done
Transforming gradient to internals      .... done
Projecting the internal gradient        .... done
Number of atoms                         ....   2
Number of internal coordinates          ....   1
Current Energy                          ....  -111.723193334 Eh
Current gradient norm                   ....     0.122002887 Eh/bohr
Maximum allowed component of the step   ....  0.300
Current trust radius                    ....  0.300
Updating the Hessian (BFGS)             .... done
Forming the augmented Hessian           .... done
Diagonalizing the augmented Hessian     .... done
Last element of RFO vector              ....  0.478479122
Lowest eigenvalues of augmented Hessian:
 -0.158319922
Length of the computed step             ....  1.835187555
Warning: the length of the step is outside the trust region - taking restricted step instead
The input lambda is                     ....    -0.158320
   iter:   1  x=   -0.181196  g=  143.290121 f(x)=     3.277913
   iter:   2  x=   -0.214074  g=   43.611400 f(x)=     1.433878
   iter:   3  x=   -0.258894  g=   13.716126 f(x)=     0.614754
   iter:   4  x=   -0.313250  g=    4.630564 f(x)=     0.251696
   iter:   5  x=   -0.364427  g=    1.807533 f(x)=     0.092505
   iter:   6  x=   -0.392932  g=    0.917878 f(x)=     0.026164
   iter:   7  x=   -0.398692  g=    0.666417 f(x)=     0.003838
   iter:   8  x=   -0.398875  g=    0.627145 f(x)=     0.000115
   iter:   9  x=   -0.398875  g=    0.625950 f(x)=     0.000000
   iter:  10  x=   -0.398875  g=    0.625949 f(x)=     0.000000
   iter:  11  x=   -0.398875  g=    0.625949 f(x)=     0.000000
The output lambda is                    ....    -0.398875 (11 iterations)
The final length of the internal step   ....  0.300000000
Converting the step to cartesian space:
 Initial RMS(Int)=    0.3000000000
Transforming coordinates:
 Iter   0:  RMS(Cart)=    0.0866025404 RMS(Int)=    0.3000000000
 Iter   1:  RMS(Cart)=    0.0000000000 RMS(Int)=    0.0000000000
done
Storing new coordinates                 .... done

                                .--------------------.
          ----------------------|Geometry convergence|-------------------------
          Item                value                   Tolerance       Converged
          ---------------------------------------------------------------------
          Energy change      -0.0202782867            0.0000050000      NO
          RMS gradient        0.0862690691            0.0001000000      NO
          MAX gradient        0.0862690691            0.0003000000      NO
          RMS step            0.3000000000            0.0020000000      NO
          MAX step            0.3000000000            0.0040000000      NO
          ........................................................
          Max(Bonds)      0.1588      Max(Angles)    0.00
          Max(Dihed)        0.00      Max(Improp)    0.00
          ---------------------------------------------------------------------

The optimization has not yet converged - more geometry cycles are needed


    ---------------------------------------------------------------------------
                         Redundant Internal Coordinates
                            (Angstroem and degrees)

        Definition                    Value    dE/dq     Step     New-Value
    ----------------------------------------------------------------------------
     1. B(O   1,C   0)                2.0237  0.086269 -0.1588    1.8650   
    ----------------------------------------------------------------------------

         *************************************************************
         *                GEOMETRY OPTIMIZATION CYCLE   5            *
         *************************************************************
---------------------------------
CARTESIAN COORDINATES (ANGSTROEM)
---------------------------------
  C      0.000000    0.000000    0.317506
  O      0.000000    0.000000    2.182494

----------------------------
CARTESIAN COORDINATES (A.U.)
----------------------------
  NO LB      ZA    FRAG     MASS         X           Y           Z
   0 C     6.0000    0    12.011    0.000000    0.000000    0.600000
   1 O     8.0000    0    15.999    0.000000    0.000000    4.124315

--------------------------------
INTERNAL COORDINATES (ANGSTROEM)
--------------------------------
 C      0   0   0     0.000000000000     0.00000000     0.00000000
 O      1   0   0     1.864987350040     0.00000000     0.00000000

---------------------------
INTERNAL COORDINATES (A.U.)
---------------------------
 C      0   0   0     0.000000000000     0.00000000     0.00000000
 O      1   0   0     3.524315334803     0.00000000     0.00000000


Diagonalization of the overlap matrix:
Smallest eigenvalue                        ... 1.290e-01
Time for diagonalization                   ...    0.000 sec
Threshold for overlap eigenvalues          ... 1.000e-08
Number of eigenvalues below threshold      ... 0
Time for construction of square roots      ...    0.000 sec
Total time needed                          ...    0.000 sec

--------------
SCF ITERATIONS
--------------
ITER       Energy         Delta-E        Max-DP      RMS-DP      [F,P]     Damp
               ***  Starting incremental Fock matrix formation  ***
  0   -111.7479737144   0.000000000000 0.01003451  0.00113409  0.0439693 0.7000
  1   -111.7491483507  -0.001174636379 0.01048600  0.00121583  0.0373511 0.7000
                               ***Turning on DIIS***
  2   -111.7503043223  -0.001155971529 0.03089712  0.00372688  0.0314123 0.0000
  3   -111.7520569042  -0.001752581886 0.01959602  0.00294985  0.0173394 0.0000
  4   -111.7693227935  -0.017265889331 0.01634032  0.00269837  0.0140971 0.0000
  5   -111.7675381374   0.001784656133 0.00960311  0.00188943  0.0068875 0.0000
  6   -111.7651652019   0.002372935415 0.00779591  0.00137140  0.0044392 0.0000
  7   -111.7634630211   0.001702180832 0.00367750  0.00067225  0.0018665 0.0000
                      *** Initiating the SOSCF procedure ***
                           *** Shutting down DIIS ***
                      *** Re-Reading the Fockian *** 
                      *** Removing any level shift *** 
ITER      Energy       Delta-E        Grad      Rot      Max-DP    RMS-DP
  8   -111.76066875   0.0027942701  0.001753  0.001753  0.002116  0.000431
               *** Restarting incremental Fock matrix formation ***
  9   -111.75822402   0.0024447294  0.000081  0.000120  0.000199  0.000022
 10   -111.75822403  -0.0000000133  0.000056  0.000054  0.000042  0.000008
 11   -111.75822406  -0.0000000206  0.000006  0.000014  0.000014  0.000002
 12   -111.75822406  -0.0000000008  0.000006  0.000030  0.000024  0.000004
                 **** Energy Check signals convergence ****
              ***Rediagonalizing the Fockian in SOSCF/NRSCF***

               *****************************************************
               *                     SUCCESS                       *
               *           SCF CONVERGED AFTER  13 CYCLES          *
               *****************************************************

Total Energy       :         -111.75822406 Eh           -3041.09588 eV
  Last Energy change         ...   -8.3581e-10  Tolerance :   1.0000e-08
  Last MAX-Density change    ...    6.5058e-06  Tolerance :   1.0000e-07
             **** THE GBW FILE WAS UPDATED (actividad2_Q2002B.gbw) ****
             **** DENSITY FILE WAS UPDATED (actividad2_Q2002B.scfp) ****
             **** ENERGY FILE WAS UPDATED (actividad2_Q2002B.en.tmp) ****
             **** THE GBW FILE WAS UPDATED (actividad2_Q2002B.gbw) ****
             **** DENSITY FILE WAS UPDATED (actividad2_Q2002B.scfp) ****
Total SCF time: 0 days 0 hours 0 min 1 sec 

-------------------------   --------------------
FINAL SINGLE POINT ENERGY      -111.758224057074
-------------------------   --------------------

------------------------------------------------------------------------------
                         ORCA SCF GRADIENT CALCULATION
------------------------------------------------------------------------------

Gradient of the Hartree-Fock SCF energy:
Hartree-Fock type                ... RHF
Number of operators              ...    1
Number of atoms                  ...    2
Basis set dimensions             ...   18
Integral neglect threshold       ... 2.5e-11
Integral primitive cutoff        ... 2.5e-12

Nuclear repulsion gradient       ... done
One Electron Gradient            ... done
Pre-screening matrix             ... done
Starting the two electron gradient:
Two electron gradient done

------------------
CARTESIAN GRADIENT
------------------

   1   C   :   -0.000000000    0.000000000   -0.155036145
   2   O   :    0.000000000   -0.000000000    0.155036145

Difference to translation invariance:
           :   -0.0000000000   -0.0000000000    0.0000000000

Norm of the cartesian gradient     ...    0.2192542185
RMS gradient                       ...    0.0895101599
MAX gradient                       ...    0.1550361447

-------
TIMINGS
-------

Total SCF gradient time            ...        0.138 sec

One electron gradient       ....       0.000 sec  (  0.3%)
Prescreening matrices       ....       0.000 sec  (  0.2%)
Two electron gradient       ....       0.005 sec  (  3.5%)
------------------------------------------------------------------------------
                         ORCA GEOMETRY RELAXATION STEP
------------------------------------------------------------------------------

Reading the OPT-File                    .... done
Getting information on internals        .... done
Copying old internal coords+grads       .... done
Making the new internal coordinates     .... (new redundants).... done
Validating the new internal coordinates .... (new redundants).... done
Calculating the B-matrix                .... done
Calculating the G,G- and P matrices     .... done
Transforming gradient to internals      .... done
Projecting the internal gradient        .... done
Number of atoms                         ....   2
Number of internal coordinates          ....   1
Current Energy                          ....  -111.758224057 Eh
Current gradient norm                   ....     0.219254219 Eh/bohr
Maximum allowed component of the step   ....  0.300
Current trust radius                    ....  0.300
Updating the Hessian (BFGS)             .... done
Forming the augmented Hessian           .... done
Diagonalizing the augmented Hessian     .... done
Last element of RFO vector              ....  0.450301192
Lowest eigenvalues of augmented Hessian:
 -0.307412387
Length of the computed step             ....  1.982843341
Warning: the length of the step is outside the trust region - taking restricted step instead
The input lambda is                     ....    -0.307412
   iter:   1  x=   -0.345612  g=  100.568563 f(x)=     3.841668
   iter:   2  x=   -0.400854  g=   30.490746 f(x)=     1.684383
   iter:   3  x=   -0.477204  g=    9.508474 f(x)=     0.725973
   iter:   4  x=   -0.572645  g=    3.152402 f(x)=     0.300868
   iter:   5  x=   -0.668528  g=    1.186897 f(x)=     0.113803
   iter:   6  x=   -0.729456  g=    0.567021 f(x)=     0.034547
   iter:   7  x=   -0.745224  g=    0.384044 f(x)=     0.006056
   iter:   8  x=   -0.746009  g=    0.349902 f(x)=     0.000275
   iter:   9  x=   -0.746011  g=    0.348310 f(x)=     0.000001
   iter:  10  x=   -0.746011  g=    0.348306 f(x)=     0.000000
   iter:  11  x=   -0.746011  g=    0.348306 f(x)=     0.000000
The output lambda is                    ....    -0.746011 (11 iterations)
The final length of the internal step   ....  0.300000000
Converting the step to cartesian space:
 Initial RMS(Int)=    0.3000000000
Transforming coordinates:
 Iter   0:  RMS(Cart)=    0.0866025404 RMS(Int)=    0.3000000000
 Iter   1:  RMS(Cart)=    0.0000000000 RMS(Int)=    0.0000000000
done
Storing new coordinates                 .... done

                                .--------------------.
          ----------------------|Geometry convergence|-------------------------
          Item                value                   Tolerance       Converged
          ---------------------------------------------------------------------
          Energy change      -0.0350307232            0.0000050000      NO
          RMS gradient        0.1550361447            0.0001000000      NO
          MAX gradient        0.1550361447            0.0003000000      NO
          RMS step            0.3000000000            0.0020000000      NO
          MAX step            0.3000000000            0.0040000000      NO
          ........................................................
          Max(Bonds)      0.1588      Max(Angles)    0.00
          Max(Dihed)        0.00      Max(Improp)    0.00
          ---------------------------------------------------------------------

The optimization has not yet converged - more geometry cycles are needed


    ---------------------------------------------------------------------------
                         Redundant Internal Coordinates
                            (Angstroem and degrees)

        Definition                    Value    dE/dq     Step     New-Value
    ----------------------------------------------------------------------------
     1. B(O   1,C   0)                1.8650  0.155036 -0.1588    1.7062   
    ----------------------------------------------------------------------------

         *************************************************************
         *                GEOMETRY OPTIMIZATION CYCLE   6            *
         *************************************************************
---------------------------------
CARTESIAN COORDINATES (ANGSTROEM)
---------------------------------
  C      0.000000    0.000000    0.396883
  O      0.000000    0.000000    2.103117

----------------------------
CARTESIAN COORDINATES (A.U.)
----------------------------
  NO LB      ZA    FRAG     MASS         X           Y           Z
   0 C     6.0000    0    12.011    0.000000    0.000000    0.750000
   1 O     8.0000    0    15.999    0.000000    0.000000    3.974315

--------------------------------
INTERNAL COORDINATES (ANGSTROEM)
--------------------------------
 C      0   0   0     0.000000000000     0.00000000     0.00000000
 O      1   0   0     1.706234187550     0.00000000     0.00000000

---------------------------
INTERNAL COORDINATES (A.U.)
---------------------------
 C      0   0   0     0.000000000000     0.00000000     0.00000000
 O      1   0   0     3.224315334803     0.00000000     0.00000000


Diagonalization of the overlap matrix:
Smallest eigenvalue                        ... 1.091e-01
Time for diagonalization                   ...    0.000 sec
Threshold for overlap eigenvalues          ... 1.000e-08
Number of eigenvalues below threshold      ... 0
Time for construction of square roots      ...    0.000 sec
Total time needed                          ...    0.000 sec

--------------
SCF ITERATIONS
--------------
ITER       Energy         Delta-E        Max-DP      RMS-DP      [F,P]     Damp
               ***  Starting incremental Fock matrix formation  ***
  0   -111.8029116385   0.000000000000 0.01433688  0.00153994  0.0551347 0.7000
  1   -111.8046587839  -0.001747145425 0.01445194  0.00160278  0.0457979 0.7000
                               ***Turning on DIIS***
  2   -111.8063476949  -0.001688911043 0.04169905  0.00484628  0.0383111 0.0000
  3   -111.8079014173  -0.001553722399 0.02493858  0.00382120  0.0243616 0.0000
  4   -111.8338527163  -0.025951298978 0.02432368  0.00392961  0.0234902 0.0000
  5   -111.8421932472  -0.008340530860 0.01674421  0.00309700  0.0115944 0.0000
  6   -111.8353714147   0.006821832440 0.01741695  0.00286184  0.0089482 0.0000
  7   -111.8323294485   0.003041966241 0.00873768  0.00146586  0.0036637 0.0000
  8   -111.8262575890   0.006071859474 0.00430441  0.00071551  0.0018740 0.0000
                      *** Initiating the SOSCF procedure ***
                           *** Shutting down DIIS ***
                      *** Re-Reading the Fockian *** 
                      *** Removing any level shift *** 
ITER      Energy       Delta-E        Grad      Rot      Max-DP    RMS-DP
  9   -111.82283014   0.0034274488  0.001717  0.001717  0.002315  0.000410
               *** Restarting incremental Fock matrix formation ***
 10   -111.81969737   0.0031327679  0.000111  0.000161  0.000217  0.000033
 11   -111.81969732   0.0000000520  0.000154  0.000109  0.000087  0.000017
 12   -111.81969743  -0.0000001052  0.000005  0.000007  0.000013  0.000002
 13   -111.81969743  -0.0000000004  0.000004  0.000011  0.000014  0.000002
                 **** Energy Check signals convergence ****
              ***Rediagonalizing the Fockian in SOSCF/NRSCF***

               *****************************************************
               *                     SUCCESS                       *
               *           SCF CONVERGED AFTER  14 CYCLES          *
               *****************************************************

Total Energy       :         -111.81969743 Eh           -3042.76866 eV
  Last Energy change         ...   -2.4609e-10  Tolerance :   1.0000e-08
[...]
  0 C                89.2      85.8       3.1       0.7       0.7       2.1
  1 O                10.8      14.2      96.9      99.3      99.3      97.9


----------------------------------
LOEWDIN ORBITAL POPULATIONS PER MO
----------------------------------
THRESHOLD FOR PRINTING IS 0.1%
                      0         1         2         3         4         5   
                 -20.57896 -11.31771  -1.54765  -0.78535  -0.63477  -0.63477
                   2.00000   2.00000   2.00000   2.00000   2.00000   2.00000
                  --------  --------  --------  --------  --------  --------
  0C   1s              0.0      96.7       0.8       0.8       0.0       0.0
  0C   2s              0.0       2.1       7.0       8.4       0.0       0.0
  0C   1pz             0.0       0.0       9.2       1.4       0.0       0.0
  0C   1px             0.0       0.0       0.0       0.0      12.1       0.0
  0C   1py             0.0       0.0       0.0       0.0       0.0      12.1
  0C   3s              0.0       0.7      10.8       4.4       0.0       0.0
  0C   2pz             0.1       0.0       6.9       3.8       0.0       0.0
  0C   2px             0.0       0.0       0.0       0.0      14.9       0.0
  0C   2py             0.0       0.0       0.0       0.0       0.0      14.9
  1O   1s             96.4       0.0       2.1       0.6       0.0       0.0
  1O   2s              2.7       0.0      19.5       7.4       0.0       0.0
  1O   1pz             0.0       0.0       4.3      26.3       0.0       0.0
  1O   1px             0.0       0.0       0.0       0.0      32.0       0.1
  1O   1py             0.0       0.0       0.0       0.0       0.1      32.0
  1O   3s              0.8       0.1      36.3      13.0       0.0       0.0
  1O   2pz             0.0       0.5       3.2      34.0       0.0       0.0
  1O   2px             0.0       0.0       0.0       0.0      40.8       0.1
  1O   2py             0.0       0.0       0.0       0.0       0.1      40.8

                      6         7         8         9        10        11   
                  -0.54324   0.16171   0.16171   0.49223   0.92633   0.92633
                   2.00000   0.00000   0.00000   0.00000   0.00000   0.00000
                  --------  --------  --------  --------  --------  --------
  0C   1s              0.9       0.0       0.0       0.1       0.0       0.0
  0C   2s             11.0       0.0       0.0       0.1       0.0       0.0
  0C   1pz            26.2       0.0       0.0       0.4       0.0       0.0
  0C   1px             0.0       0.0      28.0       0.0      54.5       5.4
  0C   1py             0.0      28.0       0.0       0.0       5.4      54.5
  0C   3s             38.6       0.0       0.0      15.2       0.0       0.0
  0C   2pz            12.5       0.0       0.0      61.6       0.0       0.0
  0C   2px             0.0       0.0      44.6       0.0      36.1       3.6
  0C   2py             0.0      44.6       0.0       0.0       3.6      36.1
  1O   1s              0.0       0.0       0.0       0.2       0.0       0.0
  1O   2s              0.1       0.0       0.0      11.4       0.0       0.0
  1O   1pz             8.2       0.0       0.0       3.5       0.0       0.0
  1O   1px             0.0       0.0      15.7       0.0       0.0       0.0
  1O   1py             0.0      15.7       0.0       0.0       0.0       0.0
  1O   3s              0.6       0.0       0.0       6.9       0.0       0.0
  1O   2pz             1.8       0.0       0.0       0.5       0.0       0.0
  1O   2px             0.0       0.0      11.6       0.0       0.3       0.0
  1O   2py             0.0      11.6       0.0       0.0       0.0       0.3

                     12        13        14        15        16        17   
                   1.09479   1.34832   1.78410   1.79845   1.79845   3.31214
                   0.00000   0.00000   0.00000   0.00000   0.00000   0.00000
                  --------  --------  --------  --------  --------  --------
  0C   1s              0.0       0.5       0.1       0.0       0.0       0.0
  0C   2s              6.8      61.8       2.6       0.0       0.0       0.2
  0C   1pz            52.2      10.2       0.4       0.0       0.0       0.0
  0C   3s             15.4      13.2       0.0       0.0       0.0       1.7
  0C   2pz            14.8       0.1       0.1       0.0       0.0       0.1
  0C   2px             0.0       0.0       0.0       0.6       0.1       0.0
  0C   2py             0.0       0.0       0.0       0.1       0.6       0.0
  1O   1s              0.1       0.1       0.1       0.0       0.0       0.5
  1O   2s              2.0       0.5       3.2       0.0       0.0      53.3
  1O   1pz             2.5      10.4      44.3       0.0       0.0       0.4
  1O   1px             0.0       0.0       0.0      46.1       6.0       0.0
  1O   1py             0.0       0.0       0.0       6.0      46.1       0.0
  1O   3s              0.3       0.8       0.3       0.0       0.0      41.0
  1O   2pz             6.0       2.4      48.9       0.0       0.0       2.7
  1O   2px             0.0       0.0       0.0      41.7       5.4       0.0
  1O   2py             0.0       0.0       0.0       5.4      41.7       0.0



                      *****************************
                      * MAYER POPULATION ANALYSIS *
                      *****************************

  NA   - Mulliken gross atomic population
  ZA   - Total nuclear charge
  QA   - Mulliken gross atomic charge
  VA   - Mayer's total valence
  BVA  - Mayer's bonded valence
  FA   - Mayer's free valence

  ATOM       NA         ZA         QA         VA         BVA        FA
  0 C      5.5627     6.0000     0.4373     2.2197     2.2197    -0.0000
  1 O      8.4373     8.0000    -0.4373     2.2197     2.2197    -0.0000

  Mayer bond orders larger than 0.100000
B(  0-C ,  1-O ) :   2.2197 

-------
TIMINGS
-------

Total SCF time: 0 days 0 hours 0 min 0 sec 

Total time                  ....       0.424 sec
Sum of individual times     ....       0.222 sec  ( 52.4%)

Fock matrix formation       ....       0.181 sec  ( 42.7%)
Diagonalization             ....       0.000 sec  (  0.0%)
Density matrix formation    ....       0.000 sec  (  0.0%)
Population analysis         ....       0.003 sec  (  0.7%)
Initial guess               ....       0.001 sec  (  0.1%)
Orbital Transformation      ....       0.000 sec  (  0.0%)
Orbital Orthonormalization  ....       0.000 sec  (  0.0%)
DIIS solution               ....       0.000 sec  (  0.0%)
SOSCF solution              ....       0.038 sec  (  8.9%)

-------------------------   --------------------
FINAL SINGLE POINT ENERGY      -112.093298981496
-------------------------   --------------------

                                *** OPTIMIZATION RUN DONE ***

                            ***************************************
                            *     ORCA property calculations      *
                            ***************************************

                                    ---------------------
                                    Active property flags
                                    ---------------------
   (+) Dipole Moment
   (+) Polarizability


------------------------------------------------------------------------------
                       ORCA ELECTRIC PROPERTIES CALCULATION
------------------------------------------------------------------------------

Dipole Moment Calculation                       ... on
Quadrupole Moment Calculation                   ... off
Polarizability Calculation                      ... Analytic (CP-SCF)
GBWName                                         ... actividad2_Q2002B.gbw
Electron density file                           ... actividad2_Q2002B.scfp
The origin for moment calculation is the CENTER OF MASS  = ( 0.000000,  0.000000  2.514032)

-------------
DIPOLE MOMENT
-------------
                                X             Y             Z
Electronic contribution:     -0.00000       0.00000      -0.16344
Nuclear contribution   :      0.00000       0.00000       0.00716
                        -----------------------------------------
Total Dipole Moment    :     -0.00000       0.00000      -0.15629
                        -----------------------------------------
Magnitude (a.u.)       :      0.15629
Magnitude (Debye)      :      0.39725



--------------------
Rotational spectrum 
--------------------
 
Rotational constants in cm-1:     0.000000     1.927920     1.927920 
Rotational constants in MHz :     0.000000 57797.584477 57797.584477 

 Dipole components along the rotational axes: 
x,y,z [a.u.] :    -0.156285     0.000000    -0.000000 
x,y,z [Debye]:    -0.397245     0.000000    -0.000000 

 
Transforming and storing MO dipole integrals   ... done

                ... starting polarizability calculation

Opening the Dipole integral file               ... (actividad2_Q2002B.dmo.tmp) done
Reading Dipole-MO integrals                    ... done
Solving CP-SCF equations                       ... 
------------------------------------------------------------------------------
                           ORCA CP-SCF CALCULATION
------------------------------------------------------------------------------

Input orbitals are from        ... actividad2_Q2002B.gbw
Input Perturbation             ... actividad2_Q2002B.cpv.tmp
Wavefunction output            ... actividad2_Q2002B.cpu.tmp
Perturbation mode              ... Real perturbation (singlet)
Solver                         ... POPLE
Max. number of iterations      ... 64
Convergence tolerance          ... 1.000e-06
Integral handling              ... Direct
Number of perturbations        ... 3
Number of operators            ... 1
Orbital ranges used for CP-SCF:
 Operator 0:  Orbitals   0...  6  to   7... 17
Variables per vector in CP-SCF ... 77
Number of vectors sought       ... 3
     CP-SCF ITERATION   0: 
     CP-SCF ITERATION   1:      0.008450580000
     CP-SCF ITERATION   2:      0.000432077478
     CP-SCF ITERATION   3:      0.000014101986
     CP-SCF ITERATION   4:      0.000000606051
done
Reading CP-SCF coefficients                    ... done
Doing the polarizability tensor                ... done
Cleaning up                                    ... done

-------------------------
THE POLARIZABILITY TENSOR
-------------------------

The raw cartesian tensor (atomic units):
    6.49603     -0.00000     -0.00000  
   -0.00000      6.49603      0.00000  
   -0.00000      0.00000     11.17279  
diagonalized tensor: 
    6.49603      6.49603     11.17279  

    0.99483      0.10158     -0.00000  
    0.10158     -0.99483      0.00000  
    0.00000      0.00000      1.00000  

Isotropic polarizability :   8.05495


----------------------------------------------------------------------------
                           ORCA NUMERICAL FREQUENCIES
----------------------------------------------------------------------------

Number of atoms                ... 2
Central differences            ... used
Number of displacements        ... 12
Numerical increment            ... 5.000e-03 bohr
IR-spectrum generation         ... on
Raman-spectrum generation      ... on
Polarizability calculation     ... 1
Surface Crossing Hessian       ... off

The output will be reduced. Please look at the following files:
SCF program output             ... >actividad2_Q2002B.lastscf
Integral program output        ... >actividad2_Q2002B.lastint
Gradient program output        ... >actividad2_Q2002B.lastgrad
Dipole moment program output   ... >actividad2_Q2002B.lastmom
AutoCI program output          ... >actividad2_Q2002B.lastautoci


         <<< Energy and Gradient at the input geometry >>>

        <<< Energy and Gradient at displaced geometries >>>
             <<<Displacing   1/coordinate 1 (+)>>>
             <<<Displacing   1/coordinate 1 (-)>>>
             <<<Displacing   1/coordinate 2 (+)>>>
             <<<Displacing   1/coordinate 2 (-)>>>
             <<<Displacing   1/coordinate 3 (+)>>>
             <<<Displacing   1/coordinate 3 (-)>>>
             <<<Displacing   2/coordinate 1 (+)>>>
             <<<Displacing   2/coordinate 1 (-)>>>
             <<<Displacing   2/coordinate 2 (+)>>>
             <<<Displacing   2/coordinate 2 (-)>>>
             <<<Displacing   2/coordinate 3 (+)>>>
             <<<Displacing   2/coordinate 3 (-)>>>
Warning: T+R mode no 5 is zero 

-----------------------
VIBRATIONAL FREQUENCIES
-----------------------

Scaling factor for frequencies =  1.000000000 (already applied!)

   0:         0.00 cm**-1
   1:         0.00 cm**-1
   2:         0.00 cm**-1
   3:         0.00 cm**-1
   4:         0.00 cm**-1
   5:      2314.41 cm**-1


------------
NORMAL MODES
------------

These modes are the cartesian displacements weighted by the diagonal matrix
M(i,i)=1/sqrt(m[i]) where m[i] is the mass of the displaced atom
Thus, these vectors are normalized but *not* orthogonal

                  0          1          2          3          4          5    
      0       0.000000   0.000000   0.000000   0.000000   0.000000   0.000000
      1       0.000000   0.000000   0.000000   0.000000   0.000000   0.000000
      2       0.000000   0.000000   0.000000   0.000000   0.000000   0.799718
      3       0.000000   0.000000   0.000000   0.000000   0.000000   0.000000
      4       0.000000   0.000000   0.000000   0.000000   0.000000   0.000000
      5       0.000000   0.000000   0.000000   0.000000   0.000000  -0.600376


-----------
IR SPECTRUM  
-----------

 Mode    freq (cm**-1)   T**2         TX         TY         TZ
-------------------------------------------------------------------
   5:      2314.41  104.266810  ( -0.000000  -0.000000  10.211112)

--------------
RAMAN SPECTRUM  
--------------

 Mode    freq (cm**-1)   Activity   Depolarization
-------------------------------------------------------------------
   5:      2314.41     10.080608      0.306489

The first frequency considered to be a vibration is 5
The total number of vibrations considered is 1


--------------------------
THERMOCHEMISTRY AT 298.15K
--------------------------

Temperature         ... 298.15 K
Pressure            ... 1.00 atm
Total Mass          ... 28.01 AMU
The molecule is recognized as being linear

Throughout the following assumptions are being made:
  (1) The electronic state is orbitally nondegenerate
  (2) There are no thermally accessible electronically excited states
  (3) Hindered rotations indicated by low frequency modes are not
      treated as such but are treated as vibrations and this may
      cause some error
  (4) All equations used are the standard statistical mechanics
      equations for an ideal gas
  (5) All vibrations are strictly harmonic

freq.    2314.41  E(vib)   ...       0.00 

------------
INNER ENERGY
------------

The inner energy is: U= E(el) + E(ZPE) + E(vib) + E(rot) + E(trans)
    E(el)   - is the total energy from the electronic structure calculation
              = E(kin-el) + E(nuc-el) + E(el-el) + E(nuc-nuc)
    E(ZPE)  - the the zero temperature vibrational energy from the frequency calculation
    E(vib)  - the the finite temperature correction to E(ZPE) due to population
              of excited vibrational states
    E(rot)  - is the rotational thermal energy
    E(trans)- is the translational thermal energy

Summary of contributions to the inner energy U:
Electronic energy                ...   -112.09329898 Eh
Zero point energy                ...      0.00527261 Eh       3.31 kcal/mol
Thermal vibrational correction   ...      0.00000015 Eh       0.00 kcal/mol
Thermal rotational correction    ...      0.00094418 Eh       0.59 kcal/mol
Thermal translational correction ...      0.00141627 Eh       0.89 kcal/mol
-----------------------------------------------------------------------
Total thermal energy                   -112.08566577 Eh


Summary of corrections to the electronic energy:
(perhaps to be used in another calculation)
Total thermal correction                  0.00236060 Eh       1.48 kcal/mol
Non-thermal (ZPE) correction              0.00527261 Eh       3.31 kcal/mol
-----------------------------------------------------------------------
Total correction                          0.00763321 Eh       4.79 kcal/mol


--------
ENTHALPY
--------

The enthalpy is H = U + kB*T
                kB is Boltzmann's constant
Total free energy                 ...   -112.08566577 Eh 
Thermal Enthalpy correction       ...      0.00094421 Eh       0.59 kcal/mol
-----------------------------------------------------------------------
Total Enthalpy                    ...   -112.08472156 Eh


Note: Rotational entropy computed according to Herzberg 
Infrared and Raman Spectra, Chapter V,1, Van Nostrand Reinhold, 1945 
Point Group:  Cinfv, Symmetry Number:   1  
Rotational constants in cm-1:     0.000000     1.927920     1.927920 

Vibrational entropy computed according to the QRRHO of S. Grimme
Chem.Eur.J. 2012 18 9955


-------
ENTROPY
-------

The entropy contributions are T*S = T*(S(el)+S(vib)+S(rot)+S(trans))
     S(el)   - electronic entropy
     S(vib)  - vibrational entropy
     S(rot)  - rotational entropy
     S(trans)- translational entropy
The entropies will be listed as mutliplied by the temperature to get
units of energy

Electronic entropy                ...      0.00000000 Eh      0.00 kcal/mol
Vibrational entropy               ...      0.00000016 Eh      0.00 kcal/mol
Rotational entropy                ...      0.00536046 Eh      3.36 kcal/mol
Translational entropy             ...      0.01706888 Eh     10.71 kcal/mol
-----------------------------------------------------------------------
Final entropy term                ...      0.02242951 Eh     14.07 kcal/mol

In case the symmetry of your molecule has not been determined correctly
or in case you have a reason to use a different symmetry number we print 
out the resulting rotational entropy values for sn=1,12 :
 --------------------------------------------------------
|  sn= 1 | S(rot)=             -inf Eh      -inf kcal/mol|
|  sn= 2 | S(rot)=             -inf Eh      -inf kcal/mol|
|  sn= 3 | S(rot)=             -inf Eh      -inf kcal/mol|
|  sn= 4 | S(rot)=             -inf Eh      -inf kcal/mol|
|  sn= 5 | S(rot)=             -inf Eh      -inf kcal/mol|
|  sn= 6 | S(rot)=             -inf Eh      -inf kcal/mol|
|  sn= 7 | S(rot)=             -inf Eh      -inf kcal/mol|
|  sn= 8 | S(rot)=             -inf Eh      -inf kcal/mol|
|  sn= 9 | S(rot)=             -inf Eh      -inf kcal/mol|
|  sn=10 | S(rot)=             -inf Eh      -inf kcal/mol|
|  sn=11 | S(rot)=             -inf Eh      -inf kcal/mol|
|  sn=12 | S(rot)=             -inf Eh      -inf kcal/mol|
 --------------------------------------------------------


-------------------
GIBBS FREE ENERGY
-------------------

The Gibbs free energy is G = H - T*S

Total enthalpy                    ...   -112.08472156 Eh 
Total entropy correction          ...     -0.02242951 Eh    -14.07 kcal/mol
-----------------------------------------------------------------------
Final Gibbs free energy         ...   -112.10715107 Eh

For completeness - the Gibbs free energy minus the electronic energy
G-E(el)                           ...     -0.01385209 Eh     -8.69 kcal/mol


Total Time for Numerical Frequencies  :        44.241 sec

Timings for individual modules:

Sum of individual times         ...       26.191 sec (=   0.437 min)
GTO integral calculation        ...        4.043 sec (=   0.067 min)  15.4 %
SCF iterations                  ...       18.056 sec (=   0.301 min)  68.9 %
Solution of CP-SCF eqns.        ...        1.174 sec (=   0.020 min)   4.5 %
SCF Gradient evaluation         ...        2.577 sec (=   0.043 min)   9.8 %
Geometry relaxation             ...        0.341 sec (=   0.006 min)   1.3 %
                             ****ORCA TERMINATED NORMALLY****
TOTAL RUN TIME: 0 days 0 hours 1 minutes 9 seconds 255 msec
