
                                 *****************
                                 * O   R   C   A *
                                 *****************

           --- An Ab Initio, DFT and Semiempirical electronic structure package ---

                  #######################################################
                  #                        -***-                        #
                  #          Department of theory and spectroscopy      #
                  #               Directorship: Frank Neese             #
                  #        Max Planck Institute fuer Kohlenforschung    #
                  #                Kaiser Wilhelm Platz 1               #
                  #                 D-45470 Muelheim/Ruhr               #
                  #                      Germany                        #
                  #                                                     #
                  #                  All rights reserved                #
                  #                        -***-                        #
                  #######################################################


                         Program Version 4.2.1 -  RELEASE  -


 With contributions from (in alphabetic order):
   Daniel Aravena         : Magnetic Suceptibility
   Michael Atanasov       : Ab Initio Ligand Field Theory (pilot matlab implementation)
   Alexander A. Auer      : GIAO ZORA, VPT2
   Ute Becker             : Parallelization
   Giovanni Bistoni       : ED, misc. LED, open-shell LED, HFLD
   Martin Brehm           : Molecular dynamics
   Dmytro Bykov           : SCF Hessian
   Vijay G. Chilkuri      : MRCI spin determinant printing, contributions to CSF-ICE
   Dipayan Datta          : RHF DLPNO-CCSD density
   Achintya Kumar Dutta   : EOM-CC, STEOM-CC
   Dmitry Ganyushin       : Spin-Orbit,Spin-Spin,Magnetic field MRCI
   Miquel Garcia          : C-PCM Hessian, Gaussian charge scheme
   Yang Guo               : DLPNO-NEVPT2, CIM, IAO-localization
   Andreas Hansen         : Spin unrestricted coupled pair/coupled cluster methods
   Benjamin Helmich-Paris : CASSCF linear response (MC-RPA)
   Lee Huntington         : MR-EOM, pCC
   Robert Izsak           : Overlap fitted RIJCOSX, COSX-SCS-MP3, EOM
   Christian Kollmar      : KDIIS, OOCD, Brueckner-CCSD(T), CCSD density
   Simone Kossmann        : Meta GGA functionals, TD-DFT gradient, OOMP2, MP2 Hessian
   Martin Krupicka        : AUTO-CI
   Lucas Lang             : DCDCAS
   Dagmar Lenk            : GEPOL surface, SMD
   Dimitrios Liakos       : Extrapolation schemes; Compound Job, initial MDCI parallelization
   Dimitrios Manganas     : Further ROCIS development; embedding schemes
   Dimitrios Pantazis     : SARC Basis sets
   Taras Petrenko         : DFT Hessian,TD-DFT gradient, ASA, ECA, R-Raman, ABS, FL, XAS/XES, NRVS
   Peter Pinski           : DLPNO-MP2, DLPNO-MP2 Gradient
   Christoph Reimann      : Effective Core Potentials
   Marius Retegan         : Local ZFS, SOC
   Christoph Riplinger    : Optimizer, TS searches, QM/MM, DLPNO-CCSD(T), (RO)-DLPNO pert. Triples
   Tobias Risthaus        : Range-separated hybrids, TD-DFT gradient, RPA, STAB
   Michael Roemelt        : Original ROCIS implementation
   Masaaki Saitow         : Open-shell DLPNO-CCSD energy and density
   Barbara Sandhoefer     : DKH picture change effects
   Avijit Sen             : IP-ROCIS
   Kantharuban Sivalingam : CASSCF convergence, NEVPT2, FIC-MRCI
   Bernardo de Souza      : ESD, SOC TD-DFT
   Georgi Stoychev        : AutoAux, RI-MP2 NMR
   Willem Van den Heuvel  : Paramagnetic NMR
   Boris Wezisla          : Elementary symmetry handling
   Frank Wennmohs         : Technical directorship


 We gratefully acknowledge several colleagues who have allowed us to
 interface, adapt or use parts of their codes:
   Stefan Grimme, W. Hujo, H. Kruse,             : VdW corrections, initial TS optimization,
                  C. Bannwarth                     DFT functionals, gCP, sTDA/sTD-DF
   Ed Valeev, F. Pavosevic, A. Kumar             : LibInt (2-el integral package), F12 methods
   Garnet Chan, S. Sharma, J. Yang, R. Olivares  : DMRG
   Ulf Ekstrom                                   : XCFun DFT Library
   Mihaly Kallay                                 : mrcc  (arbitrary order and MRCC methods)
   Andreas Klamt, Michael Diedenhofen            : otool_cosmo (COSMO solvation model)
   Jiri Pittner, Ondrej Demel                    : Mk-CCSD
   Frank Weinhold                                : gennbo (NPA and NBO analysis)
   Christopher J. Cramer and Donald G. Truhlar   : smd solvation model
   Lars Goerigk                                  : TD-DFT with DH, B97 family of functionals
   V. Asgeirsson, H. Jonsson                     : NEB implementation
   FAccTs GmbH                                   : IRC, NEB, NEB-TS, Multilevel, MM, QM/MM, CI optimization
   S Lehtola, MJT Oliveira, MAL Marques          : LibXC Library


 Your calculation uses the libint2 library for the computation of 2-el integrals
 For citations please refer to: http://libint.valeyev.net

 Your ORCA version has been built with support for libXC version: 4.2.3
 For citations please refer to: https://tddft.org/programs/libxc/

 This ORCA versions uses:
   CBLAS   interface :  Fast vector & matrix operations
   LAPACKE interface :  Fast linear algebra routines
   SCALAPACK package :  Parallel linear algebra routines


SCAN-COORDS
----- Orbital basis set information -----
Your calculation utilizes the basis: def2-TZVP
   F. Weigend and R. Ahlrichs, Phys. Chem. Chem. Phys. 7, 3297 (2005).

----- AuxJ basis set information -----
Your calculation utilizes the auxiliary basis: def2/J
   F. Weigend, Phys. Chem. Chem. Phys. 8, 1057 (2006).

================================================================================
                                        WARNINGS
                       Please study these warnings very carefully!
================================================================================


WARNING: your system is open-shell and RHF/RKS was chosen
  ===> : WILL SWITCH to UHF/UKS


WARNING: Geometry Optimization
  ===> : Switching off AutoStart
         For restart on a previous wavefunction, please use MOREAD

INFO   : the flag for use of LIBINT has been found!

================================================================================
                                       INPUT FILE
================================================================================
NAME = ./PH2P_VWN/input.inp
|  1> ! VWN
|  2> 
|  3> %method
|  4>         method DFT
|  5>         runtyp OPT
|  6> end
|  7> 
|  8> %basis
|  9>         basis "def2-TZVP"
| 10> end
| 11> ! NumFreq
| 12> %output
| 13>         XYZFile true
| 14> end
| 15> %coords
| 16>         CTyp xyz
| 17>         Charge 0
| 18>         Mult 2
| 19>         Units Angs
| 20>         coords
| 21>         P       -1.3964703605      0.5346218729     -0.0392481365                 
| 22> 	H        0.1725606238      0.5123737189     -0.0821591799                 
| 23> 	H       -1.9650463708      1.2081038033      1.2597276053
| 24>         end
| 25> end
| 26> 
| 27>                          ****END OF INPUT****
================================================================================

                       *****************************
                       * Geometry Optimization Run *
                       *****************************

Geometry optimization settings:
Update method            Update   .... BFGS
Choice of coordinates    CoordSys .... Z-matrix Internals
Initial Hessian          InHess   .... Almoef's Model

Convergence Tolerances:
Energy Change            TolE     ....  5.0000e-06 Eh
Max. Gradient            TolMAXG  ....  3.0000e-04 Eh/bohr
RMS Gradient             TolRMSG  ....  1.0000e-04 Eh/bohr
Max. Displacement        TolMAXD  ....  4.0000e-03 bohr
RMS Displacement         TolRMSD  ....  2.0000e-03 bohr
Strict Convergence                ....  False
------------------------------------------------------------------------------
                        ORCA OPTIMIZATION COORDINATE SETUP
------------------------------------------------------------------------------

The optimization will be done in new redundant internal coordinates
Making redundant internal coordinates   ...  (new redundants) done
Evaluating the initial hessian          ...  (Almloef) done
Evaluating the coordinates              ...  done
Calculating the B-matrix                .... done
Calculating the G-matrix                .... done
Diagonalizing the G-matrix              .... done
The first mode is                       ....    0
The number of degrees of freedom        ....    3

    -----------------------------------------------------------------
                    Redundant Internal Coordinates


    -----------------------------------------------------------------
         Definition                    Initial Value    Approx d2E/dq
    -----------------------------------------------------------------
      1. B(H   1,P   0)                  1.5698         0.207714   
      2. B(H   2,P   0)                  1.5698         0.207714   
      3. A(H   1,P   0,H   2)          113.0000         0.285481   
    -----------------------------------------------------------------

Number of atoms                         .... 3
Number of degrees of freedom            .... 3

         *************************************************************
         *                GEOMETRY OPTIMIZATION CYCLE   1            *
         *************************************************************
---------------------------------
CARTESIAN COORDINATES (ANGSTROEM)
---------------------------------
  P     -1.396470    0.534622   -0.039248
  H      0.172561    0.512374   -0.082159
  H     -1.965046    1.208104    1.259728

----------------------------
CARTESIAN COORDINATES (A.U.)
----------------------------
  NO LB      ZA    FRAG     MASS         X           Y           Z
   0 P    15.0000    0    30.974   -2.638947    1.010289   -0.074168
   1 H     1.0000    0     1.008    0.326092    0.968246   -0.155258
   2 H     1.0000    0     1.008   -3.713399    2.282985    2.380540

--------------------------------
INTERNAL COORDINATES (ANGSTROEM)
--------------------------------
 P      0   0   0     0.000000000000     0.00000000     0.00000000
 H      1   0   0     1.569775323954     0.00000000     0.00000000
 H      1   2   0     1.569775324003   112.99999967     0.00000000

---------------------------
INTERNAL COORDINATES (A.U.)
---------------------------
 P      0   0   0     0.000000000000     0.00000000     0.00000000
 H      1   0   0     2.966445454061     0.00000000     0.00000000
 H      1   2   0     2.966445454153   112.99999967     0.00000000

---------------------
BASIS SET INFORMATION
---------------------
There are 2 groups of distinct atoms

 Group   1 Type P   : 14s9p3d1f contracted to 5s5p2d1f pattern {73211/51111/21/1}
 Group   2 Type H   : 5s1p contracted to 3s1p pattern {311/1}

Atom   0P    basis set group =>   1
Atom   1H    basis set group =>   2
Atom   2H    basis set group =>   2
---------------------------------
AUXILIARY/J BASIS SET INFORMATION
---------------------------------
There are 2 groups of distinct atoms

 Group   1 Type P   : 14s5p5d2f1g contracted to 8s4p3d1f1g pattern {71111111/2111/311/2/1}
 Group   2 Type H   : 5s2p1d contracted to 3s1p1d pattern {311/2/1}

Atom   0P    basis set group =>   1
Atom   1H    basis set group =>   2
Atom   2H    basis set group =>   2
------------------------------------------------------------------------------
                           ORCA GTO INTEGRAL CALCULATION
                           -- RI-GTO INTEGRALS CHOSEN --
------------------------------------------------------------------------------

                         BASIS SET STATISTICS AND STARTUP INFO

Gaussian basis set:
 # of primitive gaussian shells          ...   39
 # of primitive gaussian functions       ...   79
 # of contracted shells                  ...   21
 # of contracted basis functions         ...   49
 Highest angular momentum                ...    3
 Maximum contraction depth               ...    7
Auxiliary gaussian basis set:
 # of primitive gaussian shells          ...   43
 # of primitive gaussian functions       ...  109
 # of contracted shells                  ...   27
 # of contracted aux-basis functions     ...   73
 Highest angular momentum                ...    4
 Maximum contraction depth               ...    7
Ratio of auxiliary to basis functions    ...  1.49
Integral package used                  ... LIBINT
 One Electron integrals                  ... done
 Ordering auxiliary basis shells         ... done
 Integral threshhold             Thresh  ...  2.500e-11
 Primitive cut-off               TCut    ...  2.500e-12
 Pre-screening matrix                    ... done
 Shell pair data                         ... 
 Ordering of the shell pairs             ... done (   0.000 sec) 231 of 231 pairs
 Determination of significant pairs      ... done (   0.000 sec)
 Creation of shell pair data             ... done (   0.000 sec)
 Storage of shell pair data              ... done (   0.000 sec)
 Shell pair data done in (   0.001 sec)
 Computing two index integrals           ... done
 Cholesky decomposition of the V-matrix  ... done


Timings:
 Total evaluation time                   ...   0.137 sec (  0.002 min)
 One electron matrix time                ...   0.006 sec (  0.000 min) =  4.3%
 Schwartz matrix evaluation time         ...   0.102 sec (  0.002 min) = 74.6%
 Two index repulsion integral time       ...   0.000 sec (  0.000 min) =  0.3%
 Cholesky decomposition of V             ...   0.000 sec (  0.000 min) =  0.2%
 Three index repulsion integral time     ...   0.000 sec (  0.000 min) =  0.0%

-------------------------------------------------------------------------------
                                 ORCA SCF
-------------------------------------------------------------------------------

------------
SCF SETTINGS
------------
Hamiltonian:
 Density Functional     Method          .... DFT(GTOs)
 Exchange Functional    Exchange        .... Slater
   X-Alpha parameter    XAlpha          ....  0.666667
 Correlation Functional Correlation     .... VWN-5
 Gradients option       PostSCFGGA      .... off
   Density functional embedding theory  .... OFF
 RI-approximation to the Coulomb term is turned on
   Number of auxiliary basis functions  .... 73


General Settings:
 Integral files         IntName         .... ./PH2P_VWN/input
 Hartree-Fock type      HFTyp           .... UHF
 Total Charge           Charge          ....    0
 Multiplicity           Mult            ....    2
 Number of Electrons    NEL             ....   17
 Basis Dimension        Dim             ....   49
 Nuclear Repulsion      ENuc            ....     10.3152419103 Eh

Convergence Acceleration:
 DIIS                   CNVDIIS         .... on
   Start iteration      DIISMaxIt       ....    12
   Startup error        DIISStart       ....  0.200000
   # of expansion vecs  DIISMaxEq       ....     5
   Bias factor          DIISBfac        ....   1.050
   Max. coefficient     DIISMaxC        ....  10.000
 Newton-Raphson         CNVNR           .... off
 SOSCF                  CNVSOSCF        .... off
 Level Shifting         CNVShift        .... on
   Level shift para.    LevelShift      ....    0.2500
   Turn off err/grad.   ShiftErr        ....    0.0010
 Zerner damping         CNVZerner       .... off
 Static damping         CNVDamp         .... on
   Fraction old density DampFac         ....    0.7000
   Max. Damping (<1)    DampMax         ....    0.9800
   Min. Damping (>=0)   DampMin         ....    0.0000
   Turn off err/grad.   DampErr         ....    0.1000
 Fernandez-Rico         CNVRico         .... off

SCF Procedure:
 Maximum # iterations   MaxIter         ....   125
 SCF integral mode      SCFMode         .... Direct
   Integral package                     .... LIBINT
 Reset frequency        DirectResetFreq ....    20
 Integral Threshold     Thresh          ....  2.500e-11 Eh
 Primitive CutOff       TCut            ....  2.500e-12 Eh

Convergence Tolerance:
 Convergence Check Mode ConvCheckMode   .... Total+1el-Energy
 Convergence forced     ConvForced      .... 0
 Energy Change          TolE            ....  1.000e-08 Eh
 1-El. energy change                    ....  1.000e-05 Eh
 DIIS Error             TolErr          ....  5.000e-07


Diagonalization of the overlap matrix:
Smallest eigenvalue                        ... 2.301e-02
Time for diagonalization                   ...    0.001 sec
Threshold for overlap eigenvalues          ... 1.000e-08
Number of eigenvalues below threshold      ... 0
Time for construction of square roots      ...    0.000 sec
Total time needed                          ...    0.001 sec

-------------------
DFT GRID GENERATION
-------------------

General Integration Accuracy     IntAcc      ...  4.340
Radial Grid Type                 RadialGrid  ... Gauss-Chebyshev
Angular Grid (max. acc.)         AngularGrid ... Lebedev-110
Angular grid pruning method      GridPruning ... 3 (G Style)
Weight generation scheme         WeightScheme... Becke
Basis function cutoff            BFCut       ...    1.0000e-11
Integration weight cutoff        WCut        ...    1.0000e-14
Grids for H and He will be reduced by one unit

# of grid points (after initial pruning)     ...   3394 (   0.0 sec)
# of grid points (after weights+screening)   ...   3364 (   0.0 sec)
nearest neighbour list constructed           ...    0.0 sec
Grid point re-assignment to atoms done       ...    0.0 sec
Grid point division into batches done        ...    0.0 sec
Reduced shell lists constructed in    0.0 sec

Total number of grid points                  ...     3364
Total number of batches                      ...       54
Average number of points per batch           ...       62
Average number of grid points per atom       ...     1121
Average number of shells per batch           ...    17.93 (85.37%)
Average number of basis functions per batch  ...    43.67 (89.13%)
Average number of large shells per batch     ...    16.47 (91.89%)
Average number of large basis fcns per batch ...    40.25 (92.17%)
Maximum spatial batch extension              ...  21.00, 26.79, 23.40 au
Average spatial batch extension              ...   5.94,  7.01,  6.32 au

Time for grid setup =    0.014 sec

------------------------------
INITIAL GUESS: MODEL POTENTIAL
------------------------------
Loading Hartree-Fock densities                     ... done
Calculating cut-offs                               ... done
Setting up the integral package                    ... done
Initializing the effective Hamiltonian             ... done
Starting the Coulomb interaction                   ... done (   0.0 sec)
Reading the grid                                   ... done
Mapping shells                                     ... done
Starting the XC term evaluation                    ... done (   0.0 sec)
  promolecular density results
     # of electrons  =     16.997812852
     EX              =    -21.264672957
     EC              =     -1.240660686
     EX+EC           =    -22.505333643
Transforming the Hamiltonian                       ... done (   0.0 sec)
Diagonalizing the Hamiltonian                      ... done (   0.0 sec)
Back transforming the eigenvectors                 ... done (   0.0 sec)
Now organizing SCF variables                       ... done
                      ------------------
                      INITIAL GUESS DONE (   0.1 sec)
                      ------------------
--------------
SCF ITERATIONS
--------------
ITER       Energy         Delta-E        Max-DP      RMS-DP      [F,P]     Damp
               ***  Starting incremental Fock matrix formation  ***
  0   -341.1969792239   0.000000000000 0.01215024  0.00043129  0.0244600 0.7000
  1   -341.1984201193  -0.001440895330 0.00909433  0.00037305  0.0158983 0.7000
                               ***Turning on DIIS***
  2   -341.1992776429  -0.000857523654 0.01734561  0.00078194  0.0095407 0.0000
  3   -341.2007235265  -0.001445883567 0.00808954  0.00029642  0.0077221 0.0000
  4   -341.2009549708  -0.000231444342 0.00144553  0.00005680  0.0022347 0.0000
  5   -341.2009671846  -0.000012213810 0.00095331  0.00004193  0.0003593 0.0000
  6   -341.2009699817  -0.000002797067 0.00031704  0.00001182  0.0001746 0.0000
  7   -341.2009703041  -0.000000322443 0.00005048  0.00000323  0.0000121 0.0000
  8   -341.2009703342  -0.000000030100 0.00001376  0.00000083  0.0000058 0.0000
  9   -341.2009703371  -0.000000002891 0.00001158  0.00000067  0.0000014 0.0000
                 **** Energy Check signals convergence ****

               *****************************************************
               *                     SUCCESS                       *
               *           SCF CONVERGED AFTER  10 CYCLES          *
               *****************************************************

Setting up the final grid:

General Integration Accuracy     IntAcc      ...  4.670
Radial Grid Type                 RadialGrid  ... Gauss-Chebyshev
Angular Grid (max. acc.)         AngularGrid ... Lebedev-302
Angular grid pruning method      GridPruning ... 3 (G Style)
Weight generation scheme         WeightScheme... Becke
Basis function cutoff            BFCut       ...    1.0000e-11
Integration weight cutoff        WCut        ...    1.0000e-14
Grids for H and He will be reduced by one unit

# of grid points (after initial pruning)     ...  13634 (   0.0 sec)
# of grid points (after weights+screening)   ...  13545 (   0.0 sec)
nearest neighbour list constructed           ...    0.0 sec
Grid point re-assignment to atoms done       ...    0.0 sec
Grid point division into batches done        ...    0.1 sec
Reduced shell lists constructed in    0.1 sec

Total number of grid points                  ...    13545
Total number of batches                      ...      213
Average number of points per batch           ...       63
Average number of grid points per atom       ...     4515
Average number of shells per batch           ...    16.23 (77.30%)
Average number of basis functions per batch  ...    39.38 (80.37%)
Average number of large shells per batch     ...    14.54 (89.58%)
Average number of large basis fcns per batch ...    35.84 (91.01%)
Maximum spatial batch extension              ...  21.45, 25.33, 21.48 au
Average spatial batch extension              ...   3.95,  4.15,  4.02 au

Final grid set up in    0.1 sec
Final integration                            ... done (   0.1 sec)
Change in XC energy                          ...     0.000000638
Integrated number of electrons               ...    17.000001202
Previous integrated no of electrons          ...    16.999460537

----------------
TOTAL SCF ENERGY
----------------

Total Energy       :         -341.20096970 Eh           -9284.55040 eV

Components:
Nuclear Repulsion  :           10.31524191 Eh             280.69200 eV
Electronic Energy  :         -351.51621161 Eh           -9565.24241 eV
One Electron Energy:         -493.35264111 Eh          -13424.80787 eV
Two Electron Energy:          141.83642950 Eh            3859.56546 eV

Virial components:
Potential Energy   :         -682.35027359 Eh          -18567.69491 eV
Kinetic Energy     :          341.14930390 Eh            9283.14451 eV
Virial Ratio       :            2.00015145


DFT components:
N(Alpha)           :        9.000000962669 electrons
N(Beta)            :        8.000000238931 electrons
N(Total)           :       17.000001201600 electrons
E(X)               :      -21.300639626941 Eh       
E(C)               :       -1.238460993738 Eh       
E(XC)              :      -22.539100620679 Eh       
DFET-embed. en.    :        0.000000000000 Eh       

---------------
SCF CONVERGENCE
---------------

  Last Energy change         ...    2.5461e-09  Tolerance :   1.0000e-08
  Last MAX-Density change    ...    2.7342e-06  Tolerance :   1.0000e-07
  Last RMS-Density change    ...    1.8260e-07  Tolerance :   5.0000e-09
  Last DIIS Error            ...    7.8638e-07  Tolerance :   5.0000e-07

             **** THE GBW FILE WAS UPDATED (./PH2P_VWN/input.gbw) ****
             **** DENSITY FILE WAS UPDATED (./PH2P_VWN/input.scfp) ****
             **** ENERGY FILE WAS UPDATED (./PH2P_VWN/input.en.tmp) ****
----------------------
UHF SPIN CONTAMINATION
----------------------

Warning: in a DFT calculation there is little theoretical justification to 
         calculate <S**2> as in Hartree-Fock theory. We will do it anyways
         but you should keep in mind that the values have only limited relevance

Expectation value of <S**2>     :     0.752917
Ideal value S*(S+1) for S=0.5   :     0.750000
Deviation                       :     0.002917

             **** THE GBW FILE WAS UPDATED (./PH2P_VWN/input.gbw) ****
             **** DENSITY FILE WAS UPDATED (./PH2P_VWN/input.scfp) ****
----------------
ORBITAL ENERGIES
----------------
                 SPIN UP ORBITALS
  NO   OCC          E(Eh)            E(eV) 
   0   1.0000     -76.016607     -2068.5170 
   1   1.0000      -6.295409      -171.3068 
   2   1.0000      -4.547235      -123.7366 
   3   1.0000      -4.542073      -123.5961 
   4   1.0000      -4.541093      -123.5694 
   5   1.0000      -0.560179       -15.2433 
   6   1.0000      -0.357683        -9.7331 
   7   1.0000      -0.255262        -6.9460 
   8   1.0000      -0.219012        -5.9596 
   9   0.0000      -0.053720        -1.4618 
  10   0.0000      -0.014011        -0.3813 
  11   0.0000       0.135598         3.6898 
  12   0.0000       0.148844         4.0503 
  13   0.0000       0.194899         5.3035 
  14   0.0000       0.200214         5.4481 
  15   0.0000       0.208951         5.6858 
  16   0.0000       0.219032         5.9602 
  17   0.0000       0.220834         6.0092 
  18   0.0000       0.309560         8.4236 
  19   0.0000       0.366232         9.9657 
  20   0.0000       0.440812        11.9951 
  21   0.0000       0.503807        13.7093 
  22   0.0000       1.041322        28.3358 
  23   0.0000       1.084709        29.5164 
  24   0.0000       1.092437        29.7267 
  25   0.0000       1.104484        30.0545 
  26   0.0000       1.112913        30.2839 
  27   0.0000       1.132858        30.8266 
  28   0.0000       1.139027        30.9945 
  29   0.0000       1.145044        31.1582 
  30   0.0000       1.239154        33.7191 
  31   0.0000       1.262880        34.3647 
  32   0.0000       1.357974        36.9523 
  33   0.0000       1.364413        37.1276 
  34   0.0000       1.367139        37.2017 
  35   0.0000       1.448303        39.4103 
  36   0.0000       1.500479        40.8301 
  37   0.0000       1.701494        46.3000 
  38   0.0000       1.779042        48.4102 
  39   0.0000       1.835031        49.9337 
  40   0.0000       1.895496        51.5791 
  41   0.0000       2.205287        60.0089 
  42   0.0000       2.318823        63.0984 
  43   0.0000       2.457725        66.8781 
  44   0.0000       2.687473        73.1299 
  45   0.0000       7.003211       190.5671 
  46   0.0000       7.036980       191.4860 
  47   0.0000       7.086618       192.8367 
  48   0.0000      13.080878       355.9488 

                 SPIN DOWN ORBITALS
  NO   OCC          E(Eh)            E(eV) 
   0   1.0000     -76.012203     -2068.3972 
   1   1.0000      -6.290414      -171.1709 
   2   1.0000      -4.538134      -123.4889 
   3   1.0000      -4.537278      -123.4656 
   4   1.0000      -4.536367      -123.4408 
   5   1.0000      -0.536033       -14.5862 
   6   1.0000      -0.350357        -9.5337 
   7   1.0000      -0.242483        -6.5983 
   8   0.0000      -0.169412        -4.6099 
   9   0.0000      -0.041585        -1.1316 
  10   0.0000      -0.006570        -0.1788 
  11   0.0000       0.149320         4.0632 
  12   0.0000       0.154686         4.2092 
  13   0.0000       0.217850         5.9280 
  14   0.0000       0.222731         6.0608 
  15   0.0000       0.233376         6.3505 
  16   0.0000       0.242039         6.5862 
  17   0.0000       0.254360         6.9215 
  18   0.0000       0.315172         8.5763 
  19   0.0000       0.382329        10.4037 
  20   0.0000       0.460014        12.5176 
  21   0.0000       0.515563        14.0292 
  22   0.0000       1.045628        28.4530 
  23   0.0000       1.108831        30.1728 
  24   0.0000       1.117108        30.3980 
  25   0.0000       1.121394        30.5147 
  26   0.0000       1.142291        31.0833 
  27   0.0000       1.163091        31.6493 
  28   0.0000       1.165148        31.7053 
  29   0.0000       1.166210        31.7342 
  30   0.0000       1.270772        34.5795 
  31   0.0000       1.298144        35.3243 
  32   0.0000       1.378170        37.5019 
  33   0.0000       1.394715        37.9521 
  34   0.0000       1.409582        38.3567 
  35   0.0000       1.457949        39.6728 
  36   0.0000       1.514033        41.1989 
  37   0.0000       1.703749        46.3614 
  38   0.0000       1.796444        48.8837 
  39   0.0000       1.849815        50.3360 
  40   0.0000       1.898615        51.6640 
  41   0.0000       2.209221        60.1160 
  42   0.0000       2.321928        63.1829 
  43   0.0000       2.460802        66.9618 
  44   0.0000       2.691147        73.2298 
  45   0.0000       7.028719       191.2612 
  46   0.0000       7.045229       191.7104 
  47   0.0000       7.095387       193.0753 
  48   0.0000      13.091687       356.2429 

                    ********************************
                    * MULLIKEN POPULATION ANALYSIS *
                    ********************************

--------------------------------------------
MULLIKEN ATOMIC CHARGES AND SPIN POPULATIONS
--------------------------------------------
   0 P :   -0.171403    1.063507
   1 H :    0.082720   -0.031260
   2 H :    0.088683   -0.032247
Sum of atomic charges         :   -0.0000000
Sum of atomic spin populations:    1.0000000

-----------------------------------------------------
MULLIKEN REDUCED ORBITAL CHARGES AND SPIN POPULATIONS
-----------------------------------------------------
CHARGE
  0 P s       :     5.877328  s :     5.877328
      pz      :     3.134691  p :     9.218784
      px      :     3.051646
      py      :     3.032447
      dz2     :     0.020689  d :     0.070264
      dxz     :     0.004635
      dyz     :     0.017011
      dx2y2   :     0.026222
      dxy     :     0.001707
      f0      :     0.000045  f :     0.005026
      f+1     :     0.001528
      f-1     :     0.001001
      f+2     :     0.000024
      f-2     :     0.000734
      f+3     :     0.001645
      f-3     :     0.000049
  1 H s       :     0.905902  s :     0.905902
      pz      :     0.001681  p :     0.011378
      px      :     0.007752
      py      :     0.001945
  2 H s       :     0.900273  s :     0.900273
      pz      :     0.005892  p :     0.011044
      px      :     0.002099
      py      :     0.003053

SPIN
  0 P s       :     0.013504  s :     0.013504
      pz      :     0.230122  p :     1.045724
      px      :     0.028155
      py      :     0.787447
      dz2     :     0.001588  d :     0.005632
      dxz     :     0.000139
      dyz     :     0.001908
      dx2y2   :     0.001495
      dxy     :     0.000502
      f0      :     0.000010  f :    -0.001353
      f+1     :     0.000013
      f-1     :    -0.000648
      f+2     :     0.000019
      f-2     :    -0.000057
      f+3     :    -0.000655
      f-3     :    -0.000034
  1 H s       :    -0.033338  s :    -0.033338
      pz      :     0.000428  p :     0.002078
      px      :     0.000046
      py      :     0.001604
  2 H s       :    -0.034241  s :    -0.034241
      pz      :     0.000404  p :     0.001995
      px      :     0.000018
      py      :     0.001573


                     *******************************
                     * LOEWDIN POPULATION ANALYSIS *
                     *******************************

-------------------------------------------
LOEWDIN ATOMIC CHARGES AND SPIN POPULATIONS
-------------------------------------------
   0 P :   -0.049055    1.028563
   1 H :    0.023991   -0.014202
   2 H :    0.025064   -0.014361

----------------------------------------------------
LOEWDIN REDUCED ORBITAL CHARGES AND SPIN POPULATIONS
----------------------------------------------------
CHARGE
  0 P s       :     5.617441  s :     5.617441
      pz      :     3.177208  p :     9.313042
      px      :     3.096495
      py      :     3.039338
      dz2     :     0.029451  d :     0.105623
      dxz     :     0.009380
      dyz     :     0.023808
      dx2y2   :     0.040060
      dxy     :     0.002924
      f0      :     0.000193  f :     0.012949
      f+1     :     0.004223
      f-1     :     0.002560
      f+2     :     0.000078
      f-2     :     0.001677
      f+3     :     0.004156
      f-3     :     0.000064
  1 H s       :     0.937906  s :     0.937906
      pz      :     0.004341  p :     0.038103
      px      :     0.028841
      py      :     0.004921
  2 H s       :     0.936753  s :     0.936753
      pz      :     0.022635  p :     0.038183
      px      :     0.005657
      py      :     0.009891

SPIN
  0 P s       :     0.009771  s :     0.009771
      pz      :     0.221146  p :     1.018453
      px      :     0.016832
      py      :     0.780476
      dz2     :     0.000033  d :     0.002160
      dxz     :    -0.000467
      dyz     :     0.001645
      dx2y2   :     0.000676
      dxy     :     0.000273
      f0      :     0.000002  f :    -0.001822
      f+1     :    -0.000220
      f-1     :    -0.000699
      f+2     :     0.000028
      f-2     :    -0.000127
      f+3     :    -0.000784
      f-3     :    -0.000023
  1 H s       :    -0.019992  s :    -0.019992
      pz      :     0.001125  p :     0.005790
      px      :     0.000617
      py      :     0.004049
  2 H s       :    -0.020202  s :    -0.020202
      pz      :     0.001414  p :     0.005840
      px      :     0.000249
      py      :     0.004177


                      *****************************
                      * MAYER POPULATION ANALYSIS *
                      *****************************

  NA   - Mulliken gross atomic population
  ZA   - Total nuclear charge
  QA   - Mulliken gross atomic charge
  VA   - Mayer's total valence
  BVA  - Mayer's bonded valence
  FA   - Mayer's free valence

  ATOM       NA         ZA         QA         VA         BVA        FA
  0 P     15.1714    15.0000    -0.1714     2.9166     1.9191     0.9975
  1 H      0.9173     1.0000     0.0827     0.9713     0.9702     0.0011
  2 H      0.9113     1.0000     0.0887     0.9683     0.9671     0.0011

  Mayer bond orders larger than 0.100000
B(  0-P ,  1-H ) :   0.9611 B(  0-P ,  2-H ) :   0.9580 

-------
TIMINGS
-------

Total SCF time: 0 days 0 hours 0 min 1 sec 

Total time                  ....       1.740 sec
Sum of individual times     ....       1.634 sec  ( 93.9%)

Fock matrix formation       ....       1.384 sec  ( 79.5%)
  Split-RI-J                ....       1.117 sec  ( 80.7% of F)
  XC integration            ....       0.257 sec  ( 18.6% of F)
    Basis function eval.    ....       0.073 sec  ( 28.5% of XC)
    Density eval.           ....       0.057 sec  ( 22.3% of XC)
    XC-Functional eval.     ....       0.060 sec  ( 23.2% of XC)
    XC-Potential eval.      ....       0.054 sec  ( 21.0% of XC)
Diagonalization             ....       0.011 sec  (  0.6%)
Density matrix formation    ....       0.000 sec  (  0.0%)
Population analysis         ....       0.003 sec  (  0.2%)
Initial guess               ....       0.120 sec  (  6.9%)
Orbital Transformation      ....       0.000 sec  (  0.0%)
Orbital Orthonormalization  ....       0.000 sec  (  0.0%)
DIIS solution               ....       0.003 sec  (  0.2%)
Grid generation             ....       0.112 sec  (  6.4%)

-------------------------   --------------------
FINAL SINGLE POINT ENERGY      -341.200969696814
-------------------------   --------------------

------------------------------------------------------------------------------
                         ORCA SCF GRADIENT CALCULATION
------------------------------------------------------------------------------

Gradient of the Kohn-Sham DFT energy:
Kohn-Sham wavefunction type      ... UKS
Hartree-Fock exchange scaling    ...    0.000
Number of operators              ...    2
Number of atoms                  ...    3
Basis set dimensions             ...   49
Integral neglect threshold       ... 2.5e-11
Integral primitive cutoff        ... 2.5e-12

Nuclear repulsion gradient       ... done
One Electron Gradient            ... done
Pre-screening matrix             ... done
RI-J gradient                    ... done
Exchange-correlation gradient    ... done

------------------
CARTESIAN GRADIENT
------------------

   1   P   :   -0.005040716   -0.003312946   -0.006532482
   2   H   :    0.034903542   -0.008885502   -0.017101075
   3   H   :   -0.029862825    0.012198448    0.023633557

Difference to translation invariance:
           :    0.0000000000    0.0000000000    0.0000000000

Norm of the cartesian gradient     ...    0.0571651062
RMS gradient                       ...    0.0190550354
MAX gradient                       ...    0.0349035415

-------
TIMINGS
-------

Total SCF gradient time            ...        0.445 sec

One electron gradient       ....       0.004 sec  (  0.9%)
Prescreening matrices       ....       0.052 sec  ( 11.6%)
RI-J Coulomb gradient       ....       0.101 sec  ( 22.8%)
XC gradient                 ....       0.132 sec  ( 29.6%)
------------------------------------------------------------------------------
                         ORCA GEOMETRY RELAXATION STEP
------------------------------------------------------------------------------

Reading the OPT-File                    .... done
Getting information on internals        .... done
Copying old internal coords+grads       .... done
Making the new internal coordinates     .... (new redundants).... done
Validating the new internal coordinates .... (new redundants).... done
Calculating the B-matrix                .... done
Calculating the G,G- and P matrices     .... done
Transforming gradient to internals      .... done
Projecting the internal gradient        .... done
Number of atoms                         ....   3
Number of internal coordinates          ....   3
Current Energy                          ....  -341.200969697 Eh
Current gradient norm                   ....     0.057165106 Eh/bohr
Maximum allowed component of the step   ....  0.300
Current trust radius                    ....  0.300
Evaluating the initial hessian          ....  (Almloef) done
Projecting the Hessian                  .... done
Forming the augmented Hessian           .... done
Diagonalizing the augmented Hessian     .... done
Last element of RFO vector              ....  0.962439376
Lowest eigenvalues of augmented Hessian:
 -0.020585632  0.207714181  0.217423622
Length of the computed step             ....  0.282092242
The final length of the internal step   ....  0.282092242
Converting the step to cartesian space:
 Initial RMS(Int)=    0.1628660318
Transforming coordinates:
 Iter   0:  RMS(Cart)=    0.1341687625 RMS(Int)=    0.1587976882
 Iter   1:  RMS(Cart)=    0.0050788310 RMS(Int)=    0.0120395601
 Iter   2:  RMS(Cart)=    0.0005975993 RMS(Int)=    0.0009628499
 Iter   3:  RMS(Cart)=    0.0000413915 RMS(Int)=    0.0000722875
 Iter   4:  RMS(Cart)=    0.0000045992 RMS(Int)=    0.0000097628
 Iter   5:  RMS(Cart)=    0.0000003733 RMS(Int)=    0.0000004072
 Iter   6:  RMS(Cart)=    0.0000000323 RMS(Int)=    0.0000000779
done
Storing new coordinates                 .... done

                                .--------------------.
          ----------------------|Geometry convergence|-------------------------
          Item                value                   Tolerance       Converged
          ---------------------------------------------------------------------
          RMS gradient        0.0425828563            0.0001000000      NO
          MAX gradient        0.0539742531            0.0003000000      NO
          RMS step            0.1628660318            0.0020000000      NO
          MAX step            0.1763481621            0.0040000000      NO
          ........................................................
          Max(Bonds)      0.0825      Max(Angles)   10.10
          Max(Dihed)        0.00      Max(Improp)    0.00
          ---------------------------------------------------------------------

The optimization has not yet converged - more geometry cycles are needed


    ---------------------------------------------------------------------------
                         Redundant Internal Coordinates
                            (Angstroem and degrees)

        Definition                    Value    dE/dq     Step     New-Value
    ----------------------------------------------------------------------------
     1. B(H   1,P   0)                1.5698  0.035478 -0.0822    1.4875   
     2. B(H   2,P   0)                1.5698  0.035609 -0.0825    1.4872   
     3. A(H   1,P   0,H   2)          113.00  0.053974  -10.10    102.90   
    ----------------------------------------------------------------------------

         *************************************************************
         *                GEOMETRY OPTIMIZATION CYCLE   2            *
         *************************************************************
---------------------------------
CARTESIAN COORDINATES (ANGSTROEM)
---------------------------------
  P     -1.419870    0.519478   -0.068457
  H      0.065227    0.558708    0.007208
  H     -1.834313    1.176913    1.199569

----------------------------
CARTESIAN COORDINATES (A.U.)
----------------------------
  NO LB      ZA    FRAG     MASS         X           Y           Z
   0 P    15.0000    0    30.974   -2.683166    0.981671   -0.129365
   1 H     1.0000    0     1.008    0.123262    1.055805    0.013622
   2 H     1.0000    0     1.008   -3.466349    2.224044    2.266857

--------------------------------
INTERNAL COORDINATES (ANGSTROEM)
--------------------------------
 P      0   0   0     0.000000000000     0.00000000     0.00000000
 H      1   0   0     1.487541478692     0.00000000     0.00000000
 H      1   2   0     1.487236626275   102.89599443     0.00000000

---------------------------
INTERNAL COORDINATES (A.U.)
---------------------------
 P      0   0   0     0.000000000000     0.00000000     0.00000000
 H      1   0   0     2.811046007577     0.00000000     0.00000000
 H      1   2   0     2.810469919997   102.89599443     0.00000000

 One Electron integrals                  ... done
 Pre-screening matrix                    ... done

Diagonalization of the overlap matrix:
Smallest eigenvalue                        ... 1.922e-02
Time for diagonalization                   ...    0.001 sec
Threshold for overlap eigenvalues          ... 1.000e-08
Number of eigenvalues below threshold      ... 0
Time for construction of square roots      ...    0.000 sec
Total time needed                          ...    0.001 sec

-------------------
DFT GRID GENERATION
-------------------

General Integration Accuracy     IntAcc      ...  4.340
Radial Grid Type                 RadialGrid  ... Gauss-Chebyshev
Angular Grid (max. acc.)         AngularGrid ... Lebedev-110
Angular grid pruning method      GridPruning ... 3 (G Style)
Weight generation scheme         WeightScheme... Becke
Basis function cutoff            BFCut       ...    1.0000e-11
Integration weight cutoff        WCut        ...    1.0000e-14
Grids for H and He will be reduced by one unit

# of grid points (after initial pruning)     ...   3394 (   0.0 sec)
# of grid points (after weights+screening)   ...   3368 (   0.0 sec)
nearest neighbour list constructed           ...    0.0 sec
Grid point re-assignment to atoms done       ...    0.0 sec
Grid point division into batches done        ...    0.0 sec
Reduced shell lists constructed in    0.0 sec

Total number of grid points                  ...     3368
Total number of batches                      ...       54
Average number of points per batch           ...       62
Average number of grid points per atom       ...     1123
Average number of shells per batch           ...    18.05 (85.97%)
Average number of basis functions per batch  ...    43.84 (89.46%)
Average number of large shells per batch     ...    16.60 (91.94%)
Average number of large basis fcns per batch ...    40.56 (92.53%)
Maximum spatial batch extension              ...  20.99, 26.79, 23.40 au
Average spatial batch extension              ...   5.95,  7.08,  6.21 au

Time for grid setup =    0.014 sec

--------------
SCF ITERATIONS
--------------
ITER       Energy         Delta-E        Max-DP      RMS-DP      [F,P]     Damp
               ***  Starting incremental Fock matrix formation  ***
  0   -341.2153806165   0.000000000000 0.00139985  0.00012812  0.0210326 0.7000
  1   -341.2158544121  -0.000473795580 0.00160863  0.00012459  0.0151781 0.7000
                               ***Turning on DIIS***
  2   -341.2161747406  -0.000320328480 0.00496966  0.00034308  0.0102689 0.0000
  3   -341.2168239455  -0.000649204906 0.00391860  0.00011506  0.0029809 0.0000
  4   -341.2168574809  -0.000033535413 0.00140118  0.00004872  0.0006397 0.0000
  5   -341.2168584716  -0.000000990662 0.00015700  0.00000814  0.0002873 0.0000
  6   -341.2168585921  -0.000000120531 0.00011498  0.00000432  0.0001006 0.0000
  7   -341.2168586303  -0.000000038196 0.00002032  0.00000076  0.0000164 0.0000
  8   -341.2168586288   0.000000001509 0.00000324  0.00000012  0.0000011 0.0000
                 **** Energy Check signals convergence ****

               *****************************************************
               *                     SUCCESS                       *
               *           SCF CONVERGED AFTER   9 CYCLES          *
               *****************************************************

Setting up the final grid:

General Integration Accuracy     IntAcc      ...  4.670
Radial Grid Type                 RadialGrid  ... Gauss-Chebyshev
Angular Grid (max. acc.)         AngularGrid ... Lebedev-302
Angular grid pruning method      GridPruning ... 3 (G Style)
Weight generation scheme         WeightScheme... Becke
Basis function cutoff            BFCut       ...    1.0000e-11
Integration weight cutoff        WCut        ...    1.0000e-14
Grids for H and He will be reduced by one unit

# of grid points (after initial pruning)     ...  13634 (   0.0 sec)
# of grid points (after weights+screening)   ...  13549 (   0.0 sec)
nearest neighbour list constructed           ...    0.0 sec
Grid point re-assignment to atoms done       ...    0.0 sec
Grid point division into batches done        ...    0.1 sec
Reduced shell lists constructed in    0.1 sec

Total number of grid points                  ...    13549
Total number of batches                      ...      213
Average number of points per batch           ...       63
Average number of grid points per atom       ...     4516
Average number of shells per batch           ...    16.45 (78.33%)
Average number of basis functions per batch  ...    39.77 (81.16%)
Average number of large shells per batch     ...    14.86 (90.31%)
Average number of large basis fcns per batch ...    36.52 (91.83%)
Maximum spatial batch extension              ...  21.45, 25.33, 21.48 au
Average spatial batch extension              ...   3.92,  4.15,  3.89 au

Final grid set up in    0.1 sec
Final integration                            ... done (   0.1 sec)
Change in XC energy                          ...    -0.000289743
Integrated number of electrons               ...    16.999998793
Previous integrated no of electrons          ...    16.998908346
Total Energy       :         -341.21714837 Eh           -9284.99065 eV
  Last Energy change         ...   -2.6107e-09  Tolerance :   1.0000e-08
  Last MAX-Density change    ...    4.9850e-07  Tolerance :   1.0000e-07
             **** THE GBW FILE WAS UPDATED (./PH2P_VWN/input.gbw) ****
             **** DENSITY FILE WAS UPDATED (./PH2P_VWN/input.scfp) ****
             **** ENERGY FILE WAS UPDATED (./PH2P_VWN/input.en.tmp) ****
----------------------
UHF SPIN CONTAMINATION
----------------------

Warning: in a DFT calculation there is little theoretical justification to 
         calculate <S**2> as in Hartree-Fock theory. We will do it anyways
         but you should keep in mind that the values have only limited relevance

Expectation value of <S**2>     :     0.752590
Ideal value S*(S+1) for S=0.5   :     0.750000
Deviation                       :     0.002590

             **** THE GBW FILE WAS UPDATED (./PH2P_VWN/input.gbw) ****
             **** DENSITY FILE WAS UPDATED (./PH2P_VWN/input.scfp) ****
Total SCF time: 0 days 0 hours 0 min 1 sec 

-------------------------   --------------------
FINAL SINGLE POINT ENERGY      -341.217148374895
-------------------------   --------------------

------------------------------------------------------------------------------
                         ORCA SCF GRADIENT CALCULATION
------------------------------------------------------------------------------

Gradient of the Kohn-Sham DFT energy:
Kohn-Sham wavefunction type      ... UKS
Hartree-Fock exchange scaling    ...    0.000
Number of operators              ...    2
Number of atoms                  ...    3
Basis set dimensions             ...   49
Integral neglect threshold       ... 2.5e-11
Integral primitive cutoff        ... 2.5e-12

Nuclear repulsion gradient       ... done
One Electron Gradient            ... done
Pre-screening matrix             ... done
RI-J gradient                    ... done
Exchange-correlation gradient    ... done

------------------
CARTESIAN GRADIENT
------------------

   1   P   :   -0.002056402   -0.001367182   -0.002771123
   2   H   :    0.018007237   -0.004823958   -0.009283737
   3   H   :   -0.015950834    0.006191140    0.012054860

Difference to translation invariance:
           :    0.0000000000   -0.0000000000    0.0000000000

Norm of the cartesian gradient     ...    0.0297586123
RMS gradient                       ...    0.0099195374
MAX gradient                       ...    0.0180072368

-------
TIMINGS
-------

Total SCF gradient time            ...        0.449 sec

One electron gradient       ....       0.004 sec  (  0.9%)
Prescreening matrices       ....       0.055 sec  ( 12.3%)
RI-J Coulomb gradient       ....       0.102 sec  ( 22.8%)
XC gradient                 ....       0.134 sec  ( 29.8%)
------------------------------------------------------------------------------
                         ORCA GEOMETRY RELAXATION STEP
------------------------------------------------------------------------------

Reading the OPT-File                    .... done
Getting information on internals        .... done
Copying old internal coords+grads       .... done
Making the new internal coordinates     .... (new redundants).... done
Validating the new internal coordinates .... (new redundants).... done
Calculating the B-matrix                .... done
Calculating the G,G- and P matrices     .... done
Transforming gradient to internals      .... done
Projecting the internal gradient        .... done
Number of atoms                         ....   3
Number of internal coordinates          ....   3
Current Energy                          ....  -341.217148375 Eh
Current gradient norm                   ....     0.029758612 Eh/bohr
Maximum allowed component of the step   ....  0.300
Current trust radius                    ....  0.300
Updating the Hessian (BFGS)             .... done
Forming the augmented Hessian           .... done
Diagonalizing the augmented Hessian     .... done
Last element of RFO vector              ....  0.957230347
Lowest eigenvalues of augmented Hessian:
 -0.012184731  0.130466282  0.207714431
Length of the computed step             ....  0.302254221
Warning: the length of the step is outside the trust region - taking restricted step instead
The input lambda is                     ....    -0.012185
   iter:   1  x=   -0.013167  g=    1.382349 f(x)=     0.001358
   iter:   2  x=   -0.013178  g=    1.351850 f(x)=     0.000015
   iter:   3  x=   -0.013178  g=    1.351510 f(x)=     0.000000
   iter:   4  x=   -0.013178  g=    1.351510 f(x)=     0.000000
The output lambda is                    ....    -0.013178 (4 iterations)
The final length of the internal step   ....  0.300000000
Converting the step to cartesian space:
 Initial RMS(Int)=    0.1732050808
Transforming coordinates:
 Iter   0:  RMS(Cart)=    0.1480639393 RMS(Int)=    0.1686709451
 Iter   1:  RMS(Cart)=    0.0063545444 RMS(Int)=    0.0161013981
 Iter   2:  RMS(Cart)=    0.0009403527 RMS(Int)=    0.0013266677
 Iter   3:  RMS(Cart)=    0.0000768939 RMS(Int)=    0.0001640379
 Iter   4:  RMS(Cart)=    0.0000106707 RMS(Int)=    0.0000199183
 Iter   5:  RMS(Cart)=    0.0000009833 RMS(Int)=    0.0000014092
 Iter   6:  RMS(Cart)=    0.0000001131 RMS(Int)=    0.0000002605
 Iter   7:  RMS(Cart)=    0.0000000128 RMS(Int)=    0.0000000139
done
Storing new coordinates                 .... done

                                .--------------------.
          ----------------------|Geometry convergence|-------------------------
          Item                value                   Tolerance       Converged
          ---------------------------------------------------------------------
          Energy change      -0.0161786781            0.0000050000      NO
          RMS gradient        0.0234764781            0.0001000000      NO
          MAX gradient        0.0323509750            0.0003000000      NO
          RMS step            0.1732050808            0.0020000000      NO
          MAX step            0.2129537283            0.0040000000      NO
          ........................................................
          Max(Bonds)      0.0793      Max(Angles)   12.20
          Max(Dihed)        0.00      Max(Improp)    0.00
          ---------------------------------------------------------------------

The optimization has not yet converged - more geometry cycles are needed


    ---------------------------------------------------------------------------
                         Redundant Internal Coordinates
                            (Angstroem and degrees)

        Definition                    Value    dE/dq     Step     New-Value
    ----------------------------------------------------------------------------
     1. B(H   1,P   0)                1.4875  0.017364 -0.0788    1.4087   
     2. B(H   2,P   0)                1.4872  0.017474 -0.0793    1.4079   
     3. A(H   1,P   0,H   2)          102.90  0.032351  -12.20     90.69   
    ----------------------------------------------------------------------------

         *************************************************************
         *                GEOMETRY OPTIMIZATION CYCLE   3            *
         *************************************************************
---------------------------------
CARTESIAN COORDINATES (ANGSTROEM)
---------------------------------
  P     -1.444207    0.503797   -0.098702
  H     -0.054304    0.609454    0.105084
  H     -1.690445    1.141848    1.131938

----------------------------
CARTESIAN COORDINATES (A.U.)
----------------------------
  NO LB      ZA    FRAG     MASS         X           Y           Z
   0 P    15.0000    0    30.974   -2.729156    0.952038   -0.186519
   1 H     1.0000    0     1.008   -0.102619    1.151701    0.198580
   2 H     1.0000    0     1.008   -3.194478    2.157781    2.139053

--------------------------------
INTERNAL COORDINATES (ANGSTROEM)
--------------------------------
 P      0   0   0     0.000000000000     0.00000000     0.00000000
 H      1   0   0     1.408731176810     0.00000000     0.00000000
 H      1   2   0     1.407911927719    90.69464447     0.00000000

---------------------------
INTERNAL COORDINATES (A.U.)
---------------------------
 P      0   0   0     0.000000000000     0.00000000     0.00000000
 H      1   0   0     2.662116120488     0.00000000     0.00000000
 H      1   2   0     2.660567964070    90.69464447     0.00000000

 One Electron integrals                  ... done
 Pre-screening matrix                    ... done

Diagonalization of the overlap matrix:
Smallest eigenvalue                        ... 1.610e-02
Time for diagonalization                   ...    0.002 sec
Threshold for overlap eigenvalues          ... 1.000e-08
Number of eigenvalues below threshold      ... 0
Time for construction of square roots      ...    0.001 sec
Total time needed                          ...    0.002 sec

-------------------
DFT GRID GENERATION
-------------------

General Integration Accuracy     IntAcc      ...  4.340
Radial Grid Type                 RadialGrid  ... Gauss-Chebyshev
Angular Grid (max. acc.)         AngularGrid ... Lebedev-110
Angular grid pruning method      GridPruning ... 3 (G Style)
Weight generation scheme         WeightScheme... Becke
Basis function cutoff            BFCut       ...    1.0000e-11
Integration weight cutoff        WCut        ...    1.0000e-14
Grids for H and He will be reduced by one unit

# of grid points (after initial pruning)     ...   3394 (   0.0 sec)
# of grid points (after weights+screening)   ...   3385 (   0.0 sec)
nearest neighbour list constructed           ...    0.0 sec
Grid point re-assignment to atoms done       ...    0.0 sec
Grid point division into batches done        ...    0.0 sec
Reduced shell lists constructed in    0.0 sec

Total number of grid points                  ...     3385
Total number of batches                      ...       54
Average number of points per batch           ...       62
Average number of grid points per atom       ...     1128
Average number of shells per batch           ...    18.18 (86.58%)
Average number of basis functions per batch  ...    44.04 (89.87%)
Average number of large shells per batch     ...    16.80 (92.40%)
Average number of large basis fcns per batch ...    40.95 (92.98%)
Maximum spatial batch extension              ...  20.99, 26.79, 23.40 au
Average spatial batch extension              ...   6.08,  7.17,  6.36 au

Time for grid setup =    0.027 sec

--------------
SCF ITERATIONS
--------------
ITER       Energy         Delta-E        Max-DP      RMS-DP      [F,P]     Damp
               ***  Starting incremental Fock matrix formation  ***
  0   -341.2196502541   0.000000000000 0.00128961  0.00013838  0.0216692 0.7000
  1   -341.2202806537  -0.000630399614 0.00126187  0.00012756  0.0153393 0.7000
                               ***Turning on DIIS***
  2   -341.2207017900  -0.000421136311 0.00399612  0.00033778  0.0103424 0.0000
  3   -341.2215634767  -0.000861686689 0.00382301  0.00011616  0.0034928 0.0000
  4   -341.2216074795  -0.000044002816 0.00096990  0.00003857  0.0005574 0.0000
  5   -341.2216085300  -0.000001050529 0.00009164  0.00000389  0.0002086 0.0000
  6   -341.2216085831  -0.000000053030 0.00004420  0.00000168  0.0000385 0.0000
  7   -341.2216085860  -0.000000002938 0.00001773  0.00000071  0.0000184 0.0000
                 **** Energy Check signals convergence ****

               *****************************************************
               *                     SUCCESS                       *
               *           SCF CONVERGED AFTER   8 CYCLES          *
               *****************************************************

Setting up the final grid:

General Integration Accuracy     IntAcc      ...  4.670
Radial Grid Type                 RadialGrid  ... Gauss-Chebyshev
Angular Grid (max. acc.)         AngularGrid ... Lebedev-302
Angular grid pruning method      GridPruning ... 3 (G Style)
Weight generation scheme         WeightScheme... Becke
Basis function cutoff            BFCut       ...    1.0000e-11
Integration weight cutoff        WCut        ...    1.0000e-14
Grids for H and He will be reduced by one unit

# of grid points (after initial pruning)     ...  13634 (   0.0 sec)
# of grid points (after weights+screening)   ...  13530 (   0.0 sec)
nearest neighbour list constructed           ...    0.0 sec
Grid point re-assignment to atoms done       ...    0.0 sec
Grid point division into batches done        ...    0.1 sec
Reduced shell lists constructed in    0.1 sec

Total number of grid points                  ...    13530
Total number of batches                      ...      213
Average number of points per batch           ...       63
Average number of grid points per atom       ...     4510
Average number of shells per batch           ...    16.52 (78.68%)
Average number of basis functions per batch  ...    39.96 (81.56%)
Average number of large shells per batch     ...    15.13 (91.54%)
Average number of large basis fcns per batch ...    37.08 (92.79%)
Maximum spatial batch extension              ...  21.45, 21.48, 21.50 au
Average spatial batch extension              ...   3.67,  4.09,  3.91 au

Final grid set up in    0.1 sec
Final integration                            ... done (   0.1 sec)
Change in XC energy                          ...    -0.000377279
Integrated number of electrons               ...    16.999996815
Previous integrated no of electrons          ...    16.999325790
Total Energy       :         -341.22198586 Eh           -9285.12228 eV
  Last Energy change         ...    2.9056e-09  Tolerance :   1.0000e-08
  Last MAX-Density change    ...    1.2313e-06  Tolerance :   1.0000e-07
             **** THE GBW FILE WAS UPDATED (./PH2P_VWN/input.gbw) ****
             **** DENSITY FILE WAS UPDATED (./PH2P_VWN/input.scfp) ****
             **** ENERGY FILE WAS UPDATED (./PH2P_VWN/input.en.tmp) ****
----------------------
UHF SPIN CONTAMINATION
----------------------

Warning: in a DFT calculation there is little theoretical justification to 
         calculate <S**2> as in Hartree-Fock theory. We will do it anyways
         but you should keep in mind that the values have only limited relevance

Expectation value of <S**2>     :     0.752412
Ideal value S*(S+1) for S=0.5   :     0.750000
Deviation                       :     0.002412

             **** THE GBW FILE WAS UPDATED (./PH2P_VWN/input.gbw) ****
             **** DENSITY FILE WAS UPDATED (./PH2P_VWN/input.scfp) ****
Total SCF time: 0 days 0 hours 0 min 1 sec 

-------------------------   --------------------
FINAL SINGLE POINT ENERGY      -341.221985862070
-------------------------   --------------------

------------------------------------------------------------------------------
                         ORCA SCF GRADIENT CALCULATION
------------------------------------------------------------------------------

Gradient of the Kohn-Sham DFT energy:
Kohn-Sham wavefunction type      ... UKS
Hartree-Fock exchange scaling    ...    0.000
Number of operators              ...    2
Number of atoms                  ...    3
Basis set dimensions             ...   49
Integral neglect threshold       ... 2.5e-11
Integral primitive cutoff        ... 2.5e-12

Nuclear repulsion gradient       ... done
One Electron Gradient            ... done
Pre-screening matrix             ... done
RI-J gradient                    ... done
Exchange-correlation gradient    ... done

------------------
CARTESIAN GRADIENT
------------------

   1   P   :    0.008971861    0.005848064    0.011253168
   2   H   :   -0.010813984   -0.000815103   -0.001614391
   3   H   :    0.001842123   -0.005032960   -0.009638776

Difference to translation invariance:
           :    0.0000000000   -0.0000000000    0.0000000000

Norm of the cartesian gradient     ...    0.0219811495
RMS gradient                       ...    0.0073270498
MAX gradient                       ...    0.0112531677

-------
TIMINGS
-------

Total SCF gradient time            ...        0.460 sec

One electron gradient       ....       0.004 sec  (  0.9%)
Prescreening matrices       ....       0.051 sec  ( 11.0%)
RI-J Coulomb gradient       ....       0.102 sec  ( 22.1%)
XC gradient                 ....       0.133 sec  ( 28.9%)
------------------------------------------------------------------------------
                         ORCA GEOMETRY RELAXATION STEP
------------------------------------------------------------------------------

Reading the OPT-File                    .... done
Getting information on internals        .... done
Copying old internal coords+grads       .... done
Making the new internal coordinates     .... (new redundants).... done
Validating the new internal coordinates .... (new redundants).... done
Calculating the B-matrix                .... done
Calculating the G,G- and P matrices     .... done
Transforming gradient to internals      .... done
Projecting the internal gradient        .... done
Number of atoms                         ....   3
Number of internal coordinates          ....   3
Current Energy                          ....  -341.221985862 Eh
Current gradient norm                   ....     0.021981150 Eh/bohr
Maximum allowed component of the step   ....  0.300
Current trust radius                    ....  0.300
Updating the Hessian (BFGS)             .... done
Forming the augmented Hessian           .... done
Diagonalizing the augmented Hessian     .... done
Last element of RFO vector              ....  0.997474647
Lowest eigenvalues of augmented Hessian:
 -0.001086289  0.166215579  0.207714605
Length of the computed step             ....  0.071203248
The final length of the internal step   ....  0.071203248
Converting the step to cartesian space:
 Initial RMS(Int)=    0.0411092144
Transforming coordinates:
 Iter   0:  RMS(Cart)=    0.0232024340 RMS(Int)=    0.0411291888
 Iter   1:  RMS(Cart)=    0.0001133762 RMS(Int)=    0.0001434135
 Iter   2:  RMS(Cart)=    0.0000018396 RMS(Int)=    0.0000028782
 Iter   3:  RMS(Cart)=    0.0000000290 RMS(Int)=    0.0000000471
done
Storing new coordinates                 .... done

                                .--------------------.
          ----------------------|Geometry convergence|-------------------------
          Item                value                   Tolerance       Converged
          ---------------------------------------------------------------------
          Energy change      -0.0048374872            0.0000050000      NO
          RMS gradient        0.0089787364            0.0001000000      NO
          MAX gradient        0.0110118381            0.0003000000      NO
          RMS step            0.0411092144            0.0020000000      NO
          MAX step            0.0495730126            0.0040000000      NO
          ........................................................
          Max(Bonds)      0.0262      Max(Angles)    0.75
          Max(Dihed)        0.00      Max(Improp)    0.00
          ---------------------------------------------------------------------

The optimization has not yet converged - more geometry cycles are needed


    ---------------------------------------------------------------------------
                         Redundant Internal Coordinates
                            (Angstroem and degrees)

        Definition                    Value    dE/dq     Step     New-Value
    ----------------------------------------------------------------------------
     1. B(H   1,P   0)                1.4087 -0.010980  0.0261    1.4349   
     2. B(H   2,P   0)                1.4079 -0.011012  0.0262    1.4341   
     3. A(H   1,P   0,H   2)           90.69  0.000147    0.75     91.45   
    ----------------------------------------------------------------------------

         *************************************************************
         *                GEOMETRY OPTIMIZATION CYCLE   4            *
         *************************************************************
---------------------------------
CARTESIAN COORDINATES (ANGSTROEM)
---------------------------------
  P     -1.448670    0.500864   -0.104359
  H     -0.031477    0.604208    0.094966
  H     -1.708809    1.150028    1.147714

----------------------------
CARTESIAN COORDINATES (A.U.)
----------------------------
  NO LB      ZA    FRAG     MASS         X           Y           Z
   0 P    15.0000    0    30.974   -2.737589    0.946496   -0.197210
   1 H     1.0000    0     1.008   -0.059483    1.141787    0.179459
   2 H     1.0000    0     1.008   -3.229182    2.173237    2.168864

--------------------------------
INTERNAL COORDINATES (ANGSTROEM)
--------------------------------
 P      0   0   0     0.000000000000     0.00000000     0.00000000
 H      1   0   0     1.434867281608     0.00000000     0.00000000
 H      1   2   0     1.434144836437    91.44833764     0.00000000

---------------------------
INTERNAL COORDINATES (A.U.)
---------------------------
 P      0   0   0     0.000000000000     0.00000000     0.00000000
 H      1   0   0     2.711506200762     0.00000000     0.00000000
 H      1   2   0     2.710140977243    91.44833764     0.00000000

 One Electron integrals                  ... done
 Pre-screening matrix                    ... done

Diagonalization of the overlap matrix:
Smallest eigenvalue                        ... 1.723e-02
Time for diagonalization                   ...    0.001 sec
Threshold for overlap eigenvalues          ... 1.000e-08
Number of eigenvalues below threshold      ... 0
Time for construction of square roots      ...    0.000 sec
Total time needed                          ...    0.001 sec

-------------------
DFT GRID GENERATION
-------------------

General Integration Accuracy     IntAcc      ...  4.340
Radial Grid Type                 RadialGrid  ... Gauss-Chebyshev
Angular Grid (max. acc.)         AngularGrid ... Lebedev-110
Angular grid pruning method      GridPruning ... 3 (G Style)
Weight generation scheme         WeightScheme... Becke
Basis function cutoff            BFCut       ...    1.0000e-11
Integration weight cutoff        WCut        ...    1.0000e-14
Grids for H and He will be reduced by one unit

# of grid points (after initial pruning)     ...   3394 (   0.0 sec)
# of grid points (after weights+screening)   ...   3385 (   0.0 sec)
nearest neighbour list constructed           ...    0.0 sec
Grid point re-assignment to atoms done       ...    0.0 sec
Grid point division into batches done        ...    0.0 sec
Reduced shell lists constructed in    0.0 sec

Total number of grid points                  ...     3385
Total number of batches                      ...       54
Average number of points per batch           ...       62
Average number of grid points per atom       ...     1128
Average number of shells per batch           ...    18.15 (86.41%)
Average number of basis functions per batch  ...    43.96 (89.72%)
Average number of large shells per batch     ...    16.76 (92.38%)
Average number of large basis fcns per batch ...    40.98 (93.22%)
Maximum spatial batch extension              ...  20.99, 26.79, 23.40 au
Average spatial batch extension              ...   6.05,  7.11,  6.24 au

Time for grid setup =    0.015 sec

--------------
SCF ITERATIONS
--------------
ITER       Energy         Delta-E        Max-DP      RMS-DP      [F,P]     Damp
               ***  Starting incremental Fock matrix formation  ***
  0   -341.2220024532   0.000000000000 0.00051056  0.00004045  0.0074893 0.7000
  1   -341.2220462165  -0.000043763266 0.00055766  0.00003812  0.0053577 0.7000
                               ***Turning on DIIS***
  2   -341.2220751309  -0.000028914423 0.00166619  0.00010308  0.0035774 0.0000
  3   -341.2221324518  -0.000057320879 0.00139517  0.00004700  0.0009892 0.0000
  4   -341.2221350487  -0.000002596897 0.00046611  0.00001449  0.0003251 0.0000
  5   -341.2221357324  -0.000000683723 0.00005959  0.00000245  0.0000560 0.0000
  6   -341.2221357394  -0.000000006993 0.00003264  0.00000134  0.0000319 0.0000
  7   -341.2221357455  -0.000000006117 0.00000419  0.00000017  0.0000081 0.0000
                 **** Energy Check signals convergence ****

               *****************************************************
               *                     SUCCESS                       *
               *           SCF CONVERGED AFTER   8 CYCLES          *
               *****************************************************

Setting up the final grid:

General Integration Accuracy     IntAcc      ...  4.670
Radial Grid Type                 RadialGrid  ... Gauss-Chebyshev
Angular Grid (max. acc.)         AngularGrid ... Lebedev-302
Angular grid pruning method      GridPruning ... 3 (G Style)
Weight generation scheme         WeightScheme... Becke
Basis function cutoff            BFCut       ...    1.0000e-11
Integration weight cutoff        WCut        ...    1.0000e-14
Grids for H and He will be reduced by one unit

# of grid points (after initial pruning)     ...  13634 (   0.0 sec)
# of grid points (after weights+screening)   ...  13532 (   0.0 sec)
nearest neighbour list constructed           ...    0.0 sec
Grid point re-assignment to atoms done       ...    0.0 sec
Grid point division into batches done        ...    0.1 sec
Reduced shell lists constructed in    0.1 sec

Total number of grid points                  ...    13532
Total number of batches                      ...      213
Average number of points per batch           ...       63
Average number of grid points per atom       ...     4511
Average number of shells per batch           ...    16.55 (78.79%)
Average number of basis functions per batch  ...    40.02 (81.68%)
Average number of large shells per batch     ...    15.06 (90.99%)
Average number of large basis fcns per batch ...    36.94 (92.31%)
Maximum spatial batch extension              ...  21.45, 21.48, 21.50 au
Average spatial batch extension              ...   3.73,  4.08,  3.88 au

Final grid set up in    0.1 sec
Final integration                            ... done (   0.1 sec)
Change in XC energy                          ...    -0.000388670
Integrated number of electrons               ...    16.999996269
Previous integrated no of electrons          ...    16.999073326
Total Energy       :         -341.22252442 Eh           -9285.13694 eV
  Last Energy change         ...   -1.7797e-09  Tolerance :   1.0000e-08
  Last MAX-Density change    ...    5.7074e-07  Tolerance :   1.0000e-07
             **** THE GBW FILE WAS UPDATED (./PH2P_VWN/input.gbw) ****
             **** DENSITY FILE WAS UPDATED (./PH2P_VWN/input.scfp) ****
             **** ENERGY FILE WAS UPDATED (./PH2P_VWN/input.en.tmp) ****
----------------------
UHF SPIN CONTAMINATION
----------------------

Warning: in a DFT calculation there is little theoretical justification to 
         calculate <S**2> as in Hartree-Fock theory. We will do it anyways
         but you should keep in mind that the values have only limited relevance

Expectation value of <S**2>     :     0.752463
Ideal value S*(S+1) for S=0.5   :     0.750000
Deviation                       :     0.002463

             **** THE GBW FILE WAS UPDATED (./PH2P_VWN/input.gbw) ****
             **** DENSITY FILE WAS UPDATED (./PH2P_VWN/input.scfp) ****
Total SCF time: 0 days 0 hours 0 min 1 sec 

-------------------------   --------------------
FINAL SINGLE POINT ENERGY      -341.222524417396
-------------------------   --------------------

------------------------------------------------------------------------------
                         ORCA SCF GRADIENT CALCULATION
------------------------------------------------------------------------------

Gradient of the Kohn-Sham DFT energy:
Kohn-Sham wavefunction type      ... UKS
Hartree-Fock exchange scaling    ...    0.000
Number of operators              ...    2
Number of atoms                  ...    3
Basis set dimensions             ...   49
Integral neglect threshold       ... 2.5e-11
Integral primitive cutoff        ... 2.5e-12

Nuclear repulsion gradient       ... done
One Electron Gradient            ... done
Pre-screening matrix             ... done
RI-J gradient                    ... done
Exchange-correlation gradient    ... done

------------------
CARTESIAN GRADIENT
------------------

   1   P   :    0.001292583    0.000833057    0.001559254
   2   H   :   -0.000293108   -0.000489702   -0.000980853
   3   H   :   -0.000999475   -0.000343354   -0.000578401

Difference to translation invariance:
           :    0.0000000000   -0.0000000000    0.0000000000

Norm of the cartesian gradient     ...    0.0027450337
RMS gradient                       ...    0.0009150112
MAX gradient                       ...    0.0015592538

-------
TIMINGS
-------

Total SCF gradient time            ...        0.458 sec

One electron gradient       ....       0.004 sec  (  0.9%)
Prescreening matrices       ....       0.052 sec  ( 11.5%)
RI-J Coulomb gradient       ....       0.100 sec  ( 21.9%)
XC gradient                 ....       0.127 sec  ( 27.6%)
------------------------------------------------------------------------------
                         ORCA GEOMETRY RELAXATION STEP
------------------------------------------------------------------------------

Reading the OPT-File                    .... done
Getting information on internals        .... done
Copying old internal coords+grads       .... done
Making the new internal coordinates     .... (new redundants).... done
Validating the new internal coordinates .... (new redundants).... done
Calculating the B-matrix                .... done
Calculating the G,G- and P matrices     .... done
Transforming gradient to internals      .... done
Projecting the internal gradient        .... done
Number of atoms                         ....   3
Number of internal coordinates          ....   3
Current Energy                          ....  -341.222524417 Eh
Current gradient norm                   ....     0.002745034 Eh/bohr
Maximum allowed component of the step   ....  0.300
Current trust radius                    ....  0.300
Updating the Hessian (BFGS)             .... done
Forming the augmented Hessian           .... done
Diagonalizing the augmented Hessian     .... done
Last element of RFO vector              ....  0.999883967
Lowest eigenvalues of augmented Hessian:
 -0.000045366  0.195377381  0.207713721
Length of the computed step             ....  0.015235008
The final length of the internal step   ....  0.015235008
Converting the step to cartesian space:
 Initial RMS(Int)=    0.0087959360
Transforming coordinates:
 Iter   0:  RMS(Cart)=    0.0072975140 RMS(Int)=    0.0088020521
 Iter   1:  RMS(Cart)=    0.0000329251 RMS(Int)=    0.0000615132
 Iter   2:  RMS(Cart)=    0.0000001860 RMS(Int)=    0.0000002556
 Iter   3:  RMS(Cart)=    0.0000000019 RMS(Int)=    0.0000000033
done
Storing new coordinates                 .... done

                                .--------------------.
          ----------------------|Geometry convergence|-------------------------
          Item                value                   Tolerance       Converged
          ---------------------------------------------------------------------
          Energy change      -0.0005385553            0.0000050000      NO
          RMS gradient        0.0017192447            0.0001000000      NO
          MAX gradient        0.0029026523            0.0003000000      NO
          RMS step            0.0087959360            0.0020000000      NO
          MAX step            0.0148703099            0.0040000000      NO
          ........................................................
          Max(Bonds)      0.0013      Max(Angles)    0.85
          Max(Dihed)        0.00      Max(Improp)    0.00
[...]
  21   0.0000       0.537310        14.6210 
  22   0.0000       1.088281        29.6136 
  23   0.0000       1.123593        30.5745 
  24   0.0000       1.125583        30.6287 
  25   0.0000       1.134434        30.8695 
  26   0.0000       1.143629        31.1197 
  27   0.0000       1.145103        31.1598 
  28   0.0000       1.187852        32.3231 
  29   0.0000       1.189901        32.3788 
  30   0.0000       1.213755        33.0280 
  31   0.0000       1.287931        35.0464 
  32   0.0000       1.373582        37.3771 
  33   0.0000       1.390688        37.8425 
  34   0.0000       1.413563        38.4650 
  35   0.0000       1.496881        40.7322 
  36   0.0000       1.566924        42.6382 
  37   0.0000       1.747842        47.5612 
  38   0.0000       1.898798        51.6689 
  39   0.0000       1.943455        52.8841 
  40   0.0000       2.043286        55.6006 
  41   0.0000       2.300553        62.6012 
  42   0.0000       2.454892        66.8010 
  43   0.0000       2.573714        70.0343 
  44   0.0000       2.652892        72.1889 
  45   0.0000       7.036211       191.4650 
  46   0.0000       7.092700       193.0022 
  47   0.0000       7.101575       193.2437 
  48   0.0000      13.517379       367.8266 

                    ********************************
                    * MULLIKEN POPULATION ANALYSIS *
                    ********************************

--------------------------------------------
MULLIKEN ATOMIC CHARGES AND SPIN POPULATIONS
--------------------------------------------
   0 P :   -0.190160    1.054322
   1 H :    0.095830   -0.026655
   2 H :    0.094331   -0.027668
Sum of atomic charges         :   -0.0000000
Sum of atomic spin populations:    1.0000000

-----------------------------------------------------
MULLIKEN REDUCED ORBITAL CHARGES AND SPIN POPULATIONS
-----------------------------------------------------
CHARGE
  0 P s       :     5.856076  s :     5.856076
      pz      :     3.133326  p :     9.233668
      px      :     3.068664
      py      :     3.031678
      dz2     :     0.031141  d :     0.095140
      dxz     :     0.007801
      dyz     :     0.022152
      dx2y2   :     0.031404
      dxy     :     0.002642
      f0      :     0.000401  f :     0.005276
      f+1     :     0.000646
      f-1     :     0.001832
      f+2     :     0.000400
      f-2     :     0.000250
      f+3     :     0.001682
      f-3     :     0.000065
  1 H s       :     0.890306  s :     0.890306
      pz      :     0.003140  p :     0.013865
      px      :     0.007851
      py      :     0.002873
  2 H s       :     0.891920  s :     0.891920
      pz      :     0.006869  p :     0.013750
      px      :     0.002984
      py      :     0.003896

SPIN
  0 P s       :     0.014560  s :     0.014560
      pz      :     0.223938  p :     1.033960
      px      :     0.024212
      py      :     0.785811
      dz2     :     0.002038  d :     0.007204
      dxz     :     0.000525
      dyz     :     0.002228
      dx2y2   :     0.001743
      dxy     :     0.000669
      f0      :     0.000044  f :    -0.001402
      f+1     :     0.000016
      f-1     :    -0.000817
      f+2     :     0.000109
      f-2     :    -0.000104
      f+3     :    -0.000651
      f-3     :     0.000002
  1 H s       :    -0.029408  s :    -0.029408
      pz      :     0.000544  p :     0.002754
      px      :     0.000038
      py      :     0.002172
  2 H s       :    -0.030316  s :    -0.030316
      pz      :     0.000511  p :     0.002648
      px      :    -0.000038
      py      :     0.002175


                     *******************************
                     * LOEWDIN POPULATION ANALYSIS *
                     *******************************

-------------------------------------------
LOEWDIN ATOMIC CHARGES AND SPIN POPULATIONS
-------------------------------------------
   0 P :   -0.012759    1.011644
   1 H :    0.006202   -0.005778
   2 H :    0.006557   -0.005866

----------------------------------------------------
LOEWDIN REDUCED ORBITAL CHARGES AND SPIN POPULATIONS
----------------------------------------------------
CHARGE
  0 P s       :     5.530786  s :     5.530786
      pz      :     3.183743  p :     9.337724
      px      :     3.116950
      py      :     3.037030
      dz2     :     0.042432  d :     0.129581
      dxz     :     0.009650
      dyz     :     0.030379
      dx2y2   :     0.044129
      dxy     :     0.002991
      f0      :     0.001323  f :     0.014668
      f+1     :     0.002511
      f-1     :     0.004588
      f+2     :     0.001292
      f-2     :     0.000579
      f+3     :     0.004136
      f-3     :     0.000239
  1 H s       :     0.944277  s :     0.944277
      pz      :     0.009100  p :     0.049522
      px      :     0.032154
      py      :     0.008268
  2 H s       :     0.943689  s :     0.943689
      pz      :     0.028724  p :     0.049754
      px      :     0.007417
      py      :     0.013613

SPIN
  0 P s       :     0.009407  s :     0.009407
      pz      :     0.213899  p :     1.001377
      px      :     0.012571
      py      :     0.774907
      dz2     :    -0.000153  d :     0.002779
      dxz     :     0.000029
      dyz     :     0.001844
      dx2y2   :     0.000667
      dxy     :     0.000391
      f0      :    -0.000051  f :    -0.001919
      f+1     :    -0.000096
      f-1     :    -0.000947
      f+2     :     0.000024
      f-2     :    -0.000092
      f+3     :    -0.000759
      f-3     :     0.000003
  1 H s       :    -0.014569  s :    -0.014569
      pz      :     0.001709  p :     0.008791
      px      :     0.000810
      py      :     0.006271
  2 H s       :    -0.014762  s :    -0.014762
      pz      :     0.002288  p :     0.008897
      px      :     0.000096
      py      :     0.006512


                      *****************************
                      * MAYER POPULATION ANALYSIS *
                      *****************************

  NA   - Mulliken gross atomic population
  ZA   - Total nuclear charge
  QA   - Mulliken gross atomic charge
  VA   - Mayer's total valence
  BVA  - Mayer's bonded valence
  FA   - Mayer's free valence

  ATOM       NA         ZA         QA         VA         BVA        FA
  0 P     15.1902    15.0000    -0.1902     2.9314     1.9373     0.9942
  1 H      0.9042     1.0000     0.0958     0.9650     0.9642     0.0008
  2 H      0.9057     1.0000     0.0943     0.9655     0.9647     0.0009

  Mayer bond orders larger than 0.100000
B(  0-P ,  1-H ) :   0.9684 B(  0-P ,  2-H ) :   0.9689 

-------
TIMINGS
-------

Total SCF time: 0 days 0 hours 0 min 0 sec 

Total time                  ....       0.602 sec
Sum of individual times     ....       0.475 sec  ( 79.0%)

Fock matrix formation       ....       0.344 sec  ( 57.2%)
  Split-RI-J                ....       0.232 sec  ( 67.3% of F)
  XC integration            ....       0.102 sec  ( 29.6% of F)
    Basis function eval.    ....       0.028 sec  ( 27.4% of XC)
    Density eval.           ....       0.024 sec  ( 23.1% of XC)
    XC-Functional eval.     ....       0.025 sec  ( 24.2% of XC)
    XC-Potential eval.      ....       0.021 sec  ( 20.7% of XC)
Diagonalization             ....       0.002 sec  (  0.3%)
Density matrix formation    ....       0.000 sec  (  0.0%)
Population analysis         ....       0.001 sec  (  0.2%)
Initial guess               ....       0.001 sec  (  0.2%)
Orbital Transformation      ....       0.000 sec  (  0.0%)
Orbital Orthonormalization  ....       0.001 sec  (  0.1%)
DIIS solution               ....       0.000 sec  (  0.0%)
Grid generation             ....       0.126 sec  ( 20.9%)

-------------------------   --------------------
FINAL SINGLE POINT ENERGY      -341.222550553722
-------------------------   --------------------

                                *** OPTIMIZATION RUN DONE ***

                            ***************************************
                            *     ORCA property calculations      *
                            ***************************************

                                    ---------------------
                                    Active property flags
                                    ---------------------
   (+) Dipole Moment


------------------------------------------------------------------------------
                       ORCA ELECTRIC PROPERTIES CALCULATION
------------------------------------------------------------------------------

Dipole Moment Calculation                       ... on
Quadrupole Moment Calculation                   ... off
Polarizability Calculation                      ... off
GBWName                                         ... ./PH2P_VWN/input.gbw
Electron density file                           ... ./PH2P_VWN/input.scfp
The origin for moment calculation is the CENTER OF MASS  = (-2.678064,  0.985233 -0.122494)

-------------
DIPOLE MOMENT
-------------
                                X             Y             Z
Electronic contribution:     -0.91073      -0.59512      -1.14267
Nuclear contribution   :      1.06233       0.69087       1.33250
                        -----------------------------------------
Total Dipole Moment    :      0.15161       0.09574       0.18983
                        -----------------------------------------
Magnitude (a.u.)       :      0.26112
Magnitude (Debye)      :      0.66373



--------------------
Rotational spectrum 
--------------------
 
Rotational constants in cm-1:     8.688921     8.060060     4.181342 
Rotational constants in MHz : 260487.296902 241634.518430 125353.491169 

 Dipole components along the rotational axes: 
x,y,z [a.u.] :     0.002876     0.261098     0.002378 
x,y,z [Debye]:     0.007311     0.663657     0.006044 

 

----------------------------------------------------------------------------
                           ORCA NUMERICAL FREQUENCIES
----------------------------------------------------------------------------

Number of atoms                ... 3
Central differences            ... used
Number of displacements        ... 18
Numerical increment            ... 5.000e-03 bohr
IR-spectrum generation         ... on
Raman-spectrum generation      ... off
Surface Crossing Hessian       ... off

The output will be reduced. Please look at the following files:
SCF program output             ... >./PH2P_VWN/input.lastscf
Integral program output        ... >./PH2P_VWN/input.lastint
Gradient program output        ... >./PH2P_VWN/input.lastgrad
Dipole moment program output   ... >./PH2P_VWN/input.lastmom
AutoCI program output          ... >./PH2P_VWN/input.lastautoci


         <<< Energy and Gradient at the input geometry >>>

        <<< Energy and Gradient at displaced geometries >>>
             <<<Displacing   1/coordinate 1 (+)>>>
             <<<Displacing   1/coordinate 1 (-)>>>
             <<<Displacing   1/coordinate 2 (+)>>>
             <<<Displacing   1/coordinate 2 (-)>>>
             <<<Displacing   1/coordinate 3 (+)>>>
             <<<Displacing   1/coordinate 3 (-)>>>
             <<<Displacing   2/coordinate 1 (+)>>>
             <<<Displacing   2/coordinate 1 (-)>>>
             <<<Displacing   2/coordinate 2 (+)>>>
             <<<Displacing   2/coordinate 2 (-)>>>
             <<<Displacing   2/coordinate 3 (+)>>>
             <<<Displacing   2/coordinate 3 (-)>>>
             <<<Displacing   3/coordinate 1 (+)>>>
             <<<Displacing   3/coordinate 1 (-)>>>
             <<<Displacing   3/coordinate 2 (+)>>>
             <<<Displacing   3/coordinate 2 (-)>>>
             <<<Displacing   3/coordinate 3 (+)>>>
             <<<Displacing   3/coordinate 3 (-)>>>

-----------------------
VIBRATIONAL FREQUENCIES
-----------------------

Scaling factor for frequencies =  1.000000000 (already applied!)

   0:         0.00 cm**-1
   1:         0.00 cm**-1
   2:         0.00 cm**-1
   3:         0.00 cm**-1
   4:         0.00 cm**-1
   5:         0.00 cm**-1
   6:      1060.34 cm**-1
   7:      2303.88 cm**-1
   8:      2320.12 cm**-1


------------
NORMAL MODES
------------

These modes are the cartesian displacements weighted by the diagonal matrix
M(i,i)=1/sqrt(m[i]) where m[i] is the mass of the displaced atom
Thus, these vectors are normalized but *not* orthogonal

                  0          1          2          3          4          5    
      0       0.000000   0.000000   0.000000   0.000000   0.000000   0.000000
      1       0.000000   0.000000   0.000000   0.000000   0.000000   0.000000
      2       0.000000   0.000000   0.000000   0.000000   0.000000   0.000000
      3       0.000000   0.000000   0.000000   0.000000   0.000000   0.000000
      4       0.000000   0.000000   0.000000   0.000000   0.000000   0.000000
      5       0.000000   0.000000   0.000000   0.000000   0.000000   0.000000
      6       0.000000   0.000000   0.000000   0.000000   0.000000   0.000000
      7       0.000000   0.000000   0.000000   0.000000   0.000000   0.000000
      8       0.000000   0.000000   0.000000   0.000000   0.000000   0.000000
                   6          7          8    
      0      -0.018778  -0.019952   0.025342
      1      -0.012180  -0.011261  -0.009455
      2      -0.023492  -0.021719  -0.018236
      3      -0.120179   0.744413  -0.649098
      4       0.320470   0.049052  -0.050446
      5       0.618105   0.094609  -0.097297
      6       0.697198  -0.131324  -0.129631
      7       0.053805   0.296963   0.340981
      8       0.103776   0.572767   0.657666


-----------
IR SPECTRUM  
-----------

 Mode    freq (cm**-1)   T**2         TX         TY         TZ
-------------------------------------------------------------------
   6:      1060.34    9.883487  ( -2.133305  -1.077878  -2.042223)
   7:      2303.88   39.063732  ( -3.972532  -1.962806  -4.407961)
   8:      2320.12   43.854705  (  5.207599  -1.607274  -3.761952)

The first frequency considered to be a vibration is 6
The total number of vibrations considered is 3


--------------------------
THERMOCHEMISTRY AT 298.15K
--------------------------

Temperature         ... 298.15 K
Pressure            ... 1.00 atm
Total Mass          ... 32.99 AMU

Throughout the following assumptions are being made:
  (1) The electronic state is orbitally nondegenerate
      but the spin degeneracy is treated
  (2) There are no thermally accessible electronically excited states
  (3) Hindered rotations indicated by low frequency modes are not
      treated as such but are treated as vibrations and this may
      cause some error
  (4) All equations used are the standard statistical mechanics
      equations for an ideal gas
  (5) All vibrations are strictly harmonic

freq.    1060.34  E(vib)   ...       0.02 
freq.    2303.88  E(vib)   ...       0.00 
freq.    2320.12  E(vib)   ...       0.00 

------------
INNER ENERGY
------------

The inner energy is: U= E(el) + E(ZPE) + E(vib) + E(rot) + E(trans)
    E(el)   - is the total energy from the electronic structure calculation
              = E(kin-el) + E(nuc-el) + E(el-el) + E(nuc-nuc)
    E(ZPE)  - the the zero temperature vibrational energy from the frequency calculation
    E(vib)  - the the finite temperature correction to E(ZPE) due to population
              of excited vibrational states
    E(rot)  - is the rotational thermal energy
    E(trans)- is the translational thermal energy

Summary of contributions to the inner energy U:
Electronic energy                ...   -341.22255126 Eh
Zero point energy                ...      0.01294990 Eh       8.13 kcal/mol
Thermal vibrational correction   ...      0.00002944 Eh       0.02 kcal/mol
Thermal rotational correction    ...      0.00141627 Eh       0.89 kcal/mol
Thermal translational correction ...      0.00141627 Eh       0.89 kcal/mol
-----------------------------------------------------------------------
Total thermal energy                   -341.20673938 Eh


Summary of corrections to the electronic energy:
(perhaps to be used in another calculation)
Total thermal correction                  0.00286198 Eh       1.80 kcal/mol
Non-thermal (ZPE) correction              0.01294990 Eh       8.13 kcal/mol
-----------------------------------------------------------------------
Total correction                          0.01581188 Eh       9.92 kcal/mol


--------
ENTHALPY
--------

The enthalpy is H = U + kB*T
                kB is Boltzmann's constant
Total free energy                 ...   -341.20673938 Eh 
Thermal Enthalpy correction       ...      0.00094421 Eh       0.59 kcal/mol
-----------------------------------------------------------------------
Total Enthalpy                    ...   -341.20579517 Eh


Note: Rotational entropy computed according to Herzberg 
Infrared and Raman Spectra, Chapter V,1, Van Nostrand Reinhold, 1945 
Point Group:  Cs, Symmetry Number:   1  
Rotational constants in cm-1:     8.688921     8.060060     4.181342 

Vibrational entropy computed according to the QRRHO of S. Grimme
Chem.Eur.J. 2012 18 9955


-------
ENTROPY
-------

The entropy contributions are T*S = T*(S(el)+S(vib)+S(rot)+S(trans))
     S(el)   - electronic entropy
     S(vib)  - vibrational entropy
     S(rot)  - rotational entropy
     S(trans)- translational entropy
The entropies will be listed as mutliplied by the temperature to get
units of energy

Electronic entropy                ...      0.00065446 Eh      0.41 kcal/mol
Vibrational entropy               ...      0.00003516 Eh      0.02 kcal/mol
Rotational entropy                ...      0.00682952 Eh      4.29 kcal/mol
Translational entropy             ...      0.01730065 Eh     10.86 kcal/mol
-----------------------------------------------------------------------
Final entropy term                ...      0.02481979 Eh     15.57 kcal/mol

In case the symmetry of your molecule has not been determined correctly
or in case you have a reason to use a different symmetry number we print 
out the resulting rotational entropy values for sn=1,12 :
 --------------------------------------------------------
|  sn= 1 | S(rot)=       0.00682952 Eh      4.29 kcal/mol|
|  sn= 2 | S(rot)=       0.00617507 Eh      3.87 kcal/mol|
|  sn= 3 | S(rot)=       0.00579224 Eh      3.63 kcal/mol|
|  sn= 4 | S(rot)=       0.00552061 Eh      3.46 kcal/mol|
|  sn= 5 | S(rot)=       0.00530992 Eh      3.33 kcal/mol|
|  sn= 6 | S(rot)=       0.00513778 Eh      3.22 kcal/mol|
|  sn= 7 | S(rot)=       0.00499223 Eh      3.13 kcal/mol|
|  sn= 8 | S(rot)=       0.00486616 Eh      3.05 kcal/mol|
|  sn= 9 | S(rot)=       0.00475495 Eh      2.98 kcal/mol|
|  sn=10 | S(rot)=       0.00465547 Eh      2.92 kcal/mol|
|  sn=11 | S(rot)=       0.00456548 Eh      2.86 kcal/mol|
|  sn=12 | S(rot)=       0.00448332 Eh      2.81 kcal/mol|
 --------------------------------------------------------


-------------------
GIBBS FREE ENERGY
-------------------

The Gibbs free energy is G = H - T*S

Total enthalpy                    ...   -341.20579517 Eh 
Total entropy correction          ...     -0.02481979 Eh    -15.57 kcal/mol
-----------------------------------------------------------------------
Final Gibbs free energy         ...   -341.23061496 Eh

For completeness - the Gibbs free energy minus the electronic energy
G-E(el)                           ...     -0.00806370 Eh     -5.06 kcal/mol


Total Time for Numerical Frequencies  :        70.867 sec

Timings for individual modules:

Sum of individual times         ...       15.617 sec (=   0.260 min)
GTO integral calculation        ...        1.328 sec (=   0.022 min)   8.5 %
SCF iterations                  ...       10.740 sec (=   0.179 min)  68.8 %
SCF Gradient evaluation         ...        3.390 sec (=   0.056 min)  21.7 %
Geometry relaxation             ...        0.159 sec (=   0.003 min)   1.0 %
                             ****ORCA TERMINATED NORMALLY****
TOTAL RUN TIME: 0 days 0 hours 1 minutes 25 seconds 473 msec
