
                                 *****************
                                 * O   R   C   A *
                                 *****************

                                            #,                                       
                                            ###                                      
                                            ####                                     
                                            #####                                    
                                            ######                                   
                                           ########,                                 
                                     ,,################,,,,,                         
                               ,,#################################,,                 
                          ,,##########################################,,             
                       ,#########################################, ''#####,          
                    ,#############################################,,   '####,        
                  ,##################################################,,,,####,       
                ,###########''''           ''''###############################       
              ,#####''   ,,,,##########,,,,          '''####'''          '####       
            ,##' ,,,,###########################,,,                        '##       
           ' ,,###''''                  '''############,,,                           
         ,,##''                                '''############,,,,        ,,,,,,###''
      ,#''                                            '''#######################'''  
     '                                                          ''''####''''         
             ,#######,   #######,   ,#######,      ##                                
            ,#'     '#,  ##    ##  ,#'     '#,    #''#        ######   ,####,        
            ##       ##  ##   ,#'  ##            #'  '#       #        #'  '#        
            ##       ##  #######   ##           ,######,      #####,   #    #        
            '#,     ,#'  ##    ##  '#,     ,#' ,#      #,         ##   #,  ,#        
             '#######'   ##     ##  '#######'  #'      '#     #####' # '####'        



                  #######################################################
                  #                        -***-                        #
                  #          Department of theory and spectroscopy      #
                  #    Directorship and core code : Frank Neese         #
                  #        Max Planck Institute fuer Kohlenforschung    #
                  #                Kaiser Wilhelm Platz 1               #
                  #                 D-45470 Muelheim/Ruhr               #
                  #                      Germany                        #
                  #                                                     #
                  #                  All rights reserved                #
                  #                        -***-                        #
                  #######################################################


                         Program Version 5.0.3 -  RELEASE  -


 With contributions from (in alphabetic order):
   Daniel Aravena         : Magnetic Suceptibility
   Michael Atanasov       : Ab Initio Ligand Field Theory (pilot matlab implementation)
   Alexander A. Auer      : GIAO ZORA, VPT2 properties, NMR spectrum
   Ute Becker             : Parallelization
   Giovanni Bistoni       : ED, misc. LED, open-shell LED, HFLD
   Martin Brehm           : Molecular dynamics
   Dmytro Bykov           : SCF Hessian
   Vijay G. Chilkuri      : MRCI spin determinant printing, contributions to CSF-ICE
   Dipayan Datta          : RHF DLPNO-CCSD density
   Achintya Kumar Dutta   : EOM-CC, STEOM-CC
   Dmitry Ganyushin       : Spin-Orbit,Spin-Spin,Magnetic field MRCI
   Miquel Garcia          : C-PCM and meta-GGA Hessian, CC/C-PCM, Gaussian charge scheme
   Yang Guo               : DLPNO-NEVPT2, F12-NEVPT2, CIM, IAO-localization
   Andreas Hansen         : Spin unrestricted coupled pair/coupled cluster methods
   Benjamin Helmich-Paris : MC-RPA, TRAH-SCF, COSX integrals
   Lee Huntington         : MR-EOM, pCC
   Robert Izsak           : Overlap fitted RIJCOSX, COSX-SCS-MP3, EOM
   Marcus Kettner         : VPT2
   Christian Kollmar      : KDIIS, OOCD, Brueckner-CCSD(T), CCSD density, CASPT2, CASPT2-K
   Simone Kossmann        : Meta GGA functionals, TD-DFT gradient, OOMP2, MP2 Hessian
   Martin Krupicka        : Initial AUTO-CI
   Lucas Lang             : DCDCAS
   Marvin Lechner         : AUTO-CI (C++ implementation), FIC-MRCC
   Dagmar Lenk            : GEPOL surface, SMD
   Dimitrios Liakos       : Extrapolation schemes; Compound Job, initial MDCI parallelization
   Dimitrios Manganas     : Further ROCIS development; embedding schemes
   Dimitrios Pantazis     : SARC Basis sets
   Anastasios Papadopoulos: AUTO-CI, single reference methods and gradients
   Taras Petrenko         : DFT Hessian,TD-DFT gradient, ASA, ECA, R-Raman, ABS, FL, XAS/XES, NRVS
   Peter Pinski           : DLPNO-MP2, DLPNO-MP2 Gradient
   Christoph Reimann      : Effective Core Potentials
   Marius Retegan         : Local ZFS, SOC
   Christoph Riplinger    : Optimizer, TS searches, QM/MM, DLPNO-CCSD(T), (RO)-DLPNO pert. Triples
   Tobias Risthaus        : Range-separated hybrids, TD-DFT gradient, RPA, STAB
   Michael Roemelt        : Original ROCIS implementation
   Masaaki Saitow         : Open-shell DLPNO-CCSD energy and density
   Barbara Sandhoefer     : DKH picture change effects
   Avijit Sen             : IP-ROCIS
   Kantharuban Sivalingam : CASSCF convergence, NEVPT2, FIC-MRCI
   Bernardo de Souza      : ESD, SOC TD-DFT
   Georgi Stoychev        : AutoAux, RI-MP2 NMR, DLPNO-MP2 response
   Willem Van den Heuvel  : Paramagnetic NMR
   Boris Wezisla          : Elementary symmetry handling
   Frank Wennmohs         : Technical directorship


 We gratefully acknowledge several colleagues who have allowed us to
 interface, adapt or use parts of their codes:
   Stefan Grimme, W. Hujo, H. Kruse, P. Pracht,  : VdW corrections, initial TS optimization,
                  C. Bannwarth, S. Ehlert          DFT functionals, gCP, sTDA/sTD-DF
   Ed Valeev, F. Pavosevic, A. Kumar             : LibInt (2-el integral package), F12 methods
   Garnet Chan, S. Sharma, J. Yang, R. Olivares  : DMRG
   Ulf Ekstrom                                   : XCFun DFT Library
   Mihaly Kallay                                 : mrcc  (arbitrary order and MRCC methods)
   Jiri Pittner, Ondrej Demel                    : Mk-CCSD
   Frank Weinhold                                : gennbo (NPA and NBO analysis)
   Christopher J. Cramer and Donald G. Truhlar   : smd solvation model
   Lars Goerigk                                  : TD-DFT with DH, B97 family of functionals
   V. Asgeirsson, H. Jonsson                     : NEB implementation
   FAccTs GmbH                                   : IRC, NEB, NEB-TS, DLPNO-Multilevel, CI-OPT
                                                   MM, QMMM, 2- and 3-layer-ONIOM, Crystal-QMMM,
                                                   LR-CPCM, SF, NACMEs, symmetry and pop. for TD-DFT,
                                                   nearIR, NL-DFT gradient (VV10), updates on ESD,
                                                   ML-optimized integration grids
   S Lehtola, MJT Oliveira, MAL Marques          : LibXC Library
   Liviu Ungur et al                             : ANISO software


 Your calculation uses the libint2 library for the computation of 2-el integrals
 For citations please refer to: http://libint.valeyev.net

 Your ORCA version has been built with support for libXC version: 5.1.0
 For citations please refer to: https://tddft.org/programs/libxc/

 This ORCA versions uses:
   CBLAS   interface :  Fast vector & matrix operations
   LAPACKE interface :  Fast linear algebra routines
   SCALAPACK package :  Parallel linear algebra routines
   Shared memory     :  Shared parallel matrices
   BLAS/LAPACK       :  OpenBLAS 0.3.15  USE64BITINT DYNAMIC_ARCH NO_AFFINITY Excavator SINGLE_THREADED
        Core in use  :  Excavator
   Copyright (c) 2011-2014, The OpenBLAS Project


SCAN-COORDS
================================================================================

----- Orbital basis set information -----
Your calculation utilizes the basis: def2-TZVP
   F. Weigend and R. Ahlrichs, Phys. Chem. Chem. Phys. 7, 3297 (2005).

----- AuxJ basis set information -----
Your calculation utilizes the auxiliary basis: def2/J
   F. Weigend, Phys. Chem. Chem. Phys. 8, 1057 (2006).

================================================================================
                                        WARNINGS
                       Please study these warnings very carefully!
================================================================================

WARNING: Old DensityContainer found on disk!
         Will remove this file - 
         If you want to keep old densities, please start your calculation with a different basename. 

WARNING: Gradients needed for Numerical Frequencies
  ===> : Setting RunTyp to EnGrad

INFO   : the flag for use of the SHARK integral package has been found!

================================================================================
                                       INPUT FILE
================================================================================
NAME = input.inp
|  1> ! PBE0 NumFreq
|  2> %method
|  3>         method DFT
|  4>         runtyp Energy
|  5> end
|  6> %basis
|  7>         basis "def2-TZVP"
|  8> end
|  9> %coords
| 10>         CTyp xyz
| 11>         Charge 0
| 12>         Mult 1
| 13>         Units Angs
| 14>         coords
| 15> 	#13.3
| 16> 	C      0.901163    0.213223   -0.028373
| 17> 	C      2.433052    0.225083   -0.148833
| 18> 	H      0.601384   -0.022814    0.995131
| 19> 	H      0.472400   -0.536477   -0.697141
| 20> 	H      0.490726    1.190161   -0.293614
| 21> 	H      2.763812   -0.521759   -0.874150
| 22> 	H      2.781611    1.206533   -0.477840
| 23> 	H      2.892631   -0.000931    0.815945
| 24>         end
| 25> end
| 26> %eprnmr
| 27>         NMRShielding 1
| 28>         Nuclei = all C {shift}
| 29>         Nuclei = all H {shift}
| 30> end
| 31> 
| 32>                          ****END OF INPUT****
================================================================================

                     *******************************
                     * Energy+Gradient Calculation *
                     *******************************

---------------------------------
CARTESIAN COORDINATES (ANGSTROEM)
---------------------------------
  C      0.901163    0.213223   -0.028373
  C      2.433052    0.225083   -0.148833
  H      0.601384   -0.022814    0.995131
  H      0.472400   -0.536477   -0.697141
  H      0.490726    1.190161   -0.293614
  H      2.763812   -0.521759   -0.874150
  H      2.781611    1.206533   -0.477840
  H      2.892631   -0.000931    0.815945

----------------------------
CARTESIAN COORDINATES (A.U.)
----------------------------
  NO LB      ZA    FRAG     MASS         X           Y           Z
   0 C     6.0000    0    12.011    1.702951    0.402933   -0.053617
   1 C     6.0000    0    12.011    4.597802    0.425345   -0.281254
   2 H     1.0000    0     1.008    1.136451   -0.043112    1.880525
   3 H     1.0000    0     1.008    0.892707   -1.013795   -1.317406
   4 H     1.0000    0     1.008    0.927338    2.249078   -0.554850
   5 H     1.0000    0     1.008    5.222848   -0.985982   -1.651904
   6 H     1.0000    0     1.008    5.256483    2.280017   -0.902987
   7 H     1.0000    0     1.008    5.466280   -0.001759    1.541913

--------------------------------
INTERNAL COORDINATES (ANGSTROEM)
--------------------------------
 C      0   0   0     0.000000000000     0.00000000     0.00000000
 C      1   0   0     1.536663652047     0.00000000     0.00000000
 H      1   2   0     1.092310098931   110.40859700     0.00000000
 H      1   2   3     1.092308764953   110.40243627   240.00047523
 H      1   2   3     1.092345721324   110.40381072   120.00166546
 H      2   1   3     1.092364362771   110.40327350   119.75465582
 H      2   1   3     1.092237650436   110.40662493   239.75815498
 H      2   1   3     1.092287404817   110.40202841   359.76161753

---------------------------
INTERNAL COORDINATES (A.U.)
---------------------------
 C      0   0   0     0.000000000000     0.00000000     0.00000000
 C      1   0   0     2.903873462319     0.00000000     0.00000000
 H      1   2   0     2.064166940295   110.40859700     0.00000000
 H      1   2   3     2.064164419443   110.40243627   240.00047523
 H      1   2   3     2.064234256862   110.40381072   120.00166546
 H      2   1   3     2.064269484093   110.40327350   119.75465582
 H      2   1   3     2.064030032482   110.40662493   239.75815498
 H      2   1   3     2.064124054635   110.40202841   359.76161753

---------------------
BASIS SET INFORMATION
---------------------
There are 2 groups of distinct atoms

 Group   1 Type C   : 11s6p2d1f contracted to 5s3p2d1f pattern {62111/411/11/1}
 Group   2 Type H   : 5s1p contracted to 3s1p pattern {311/1}

Atom   0C    basis set group =>   1
Atom   1C    basis set group =>   1
Atom   2H    basis set group =>   2
Atom   3H    basis set group =>   2
Atom   4H    basis set group =>   2
Atom   5H    basis set group =>   2
Atom   6H    basis set group =>   2
Atom   7H    basis set group =>   2
---------------------------------
AUXILIARY/J BASIS SET INFORMATION
---------------------------------
There are 2 groups of distinct atoms

 Group   1 Type C   : 12s5p4d2f1g contracted to 6s4p3d1f1g pattern {711111/2111/211/2/1}
 Group   2 Type H   : 5s2p1d contracted to 3s1p1d pattern {311/2/1}

Atom   0C    basis set group =>   1
Atom   1C    basis set group =>   1
Atom   2H    basis set group =>   2
Atom   3H    basis set group =>   2
Atom   4H    basis set group =>   2
Atom   5H    basis set group =>   2
Atom   6H    basis set group =>   2
Atom   7H    basis set group =>   2

Checking for AutoStart:
The File: input.gbw exists
Trying to determine its content:
     ... Fine, the file contains calculation information
     ... Fine, the calculation information was read
     ... Fine, the file contains a basis set
     ... Fine, the basis set was read
     ... Fine, the file contains a geometry
     ... Fine, the geometry was read
     ... Fine, the file contains a set of orbitals
     ... Fine, the orbitals can be read
     => possible old guess file was deleted
     => GBW file was renamed to GES file
     => GES file is set as startup file
     => Guess is set to MORead
     ... now leaving AutoStart

------------------------------------------------------------------------------
                           ORCA GTO INTEGRAL CALCULATION
                           -- RI-GTO INTEGRALS CHOSEN --
------------------------------------------------------------------------------
------------------------------------------------------------------------------
                   ___                                                        
                  /   \      - P O W E R E D   B Y -                         
                 /     \                                                     
                 |  |  |   _    _      __       _____    __    __             
                 |  |  |  | |  | |    /  \     |  _  \  |  |  /  |          
                  \  \/   | |  | |   /    \    | | | |  |  | /  /          
                 / \  \   | |__| |  /  /\  \   | |_| |  |  |/  /          
                |  |  |   |  __  | /  /__\  \  |    /   |      \           
                |  |  |   | |  | | |   __   |  |    \   |  |\   \          
                \     /   | |  | | |  |  |  |  | |\  \  |  | \   \       
                 \___/    |_|  |_| |__|  |__|  |_| \__\ |__|  \__/        
                                                                              
                      - O R C A' S   B I G   F R I E N D -                    
                                      &                                       
                       - I N T E G R A L  F E E D E R -                       
                                                                              
 v1 FN, 2020, v2 2021                                                         
------------------------------------------------------------------------------


Reading SHARK input file input.SHARKINP.tmp ... ok
----------------------
SHARK INTEGRAL PACKAGE
----------------------

Number of atoms                             ...      8
Number of basis functions                   ...     98
Number of shells                            ...     46
Maximum angular momentum                    ...      3
Integral batch strategy                     ... SHARK/LIBINT Hybrid
RI-J (if used) integral strategy            ... SPLIT-RIJ (Revised 2003 algorithm where possible)
Printlevel                                  ...      1
Contraction scheme used                     ... SEGMENTED contraction
Coulomb Range Separation                    ... NOT USED
Exchange Range Separation                   ... NOT USED
Finite Nucleus Model                        ... NOT USED
Auxiliary Coulomb fitting basis             ... AVAILABLE
   # of basis functions in Aux-J            ...    164
   # of shells in Aux-J                     ...     60
   Maximum angular momentum in Aux-J        ...      4
Auxiliary J/K fitting basis                 ... NOT available
Auxiliary Correlation fitting basis         ... NOT available
Auxiliary 'external' fitting basis          ... NOT available
Integral threshold                          ...     2.500000e-11
Primitive cut-off                           ...     2.500000e-12
Primitive pair pre-selection threshold      ...     2.500000e-12

Calculating pre-screening integrals         ... done (  0.1 sec) Dimension = 46
Organizing shell pair data                  ... done (  0.0 sec)
Shell pair information
Total number of shell pairs                 ...      1081
Shell pairs after pre-screening             ...      1080
Total number of primitive shell pairs       ...      2988
Primitive shell pairs kept                  ...      2658
          la=0 lb=0:    405 shell pairs
          la=1 lb=0:    336 shell pairs
          la=1 lb=1:     78 shell pairs
          la=2 lb=0:    112 shell pairs
          la=2 lb=1:     48 shell pairs
          la=2 lb=2:     10 shell pairs
          la=3 lb=0:     56 shell pairs
          la=3 lb=1:     24 shell pairs
          la=3 lb=2:      8 shell pairs
          la=3 lb=3:      3 shell pairs

Calculating one electron integrals          ... done (  0.0 sec)
Calculating RI/J V-Matrix + Cholesky decomp.... done (  0.0 sec)
Calculating Nuclear repulsion               ... done (  0.0 sec) ENN=     42.176881487915 Eh

SHARK setup successfully completed in   0.2 seconds

Maximum memory used throughout the entire GTOINT-calculation: 14.7 MB
-------------------------------------------------------------------------------
                                 ORCA SCF
-------------------------------------------------------------------------------

------------
SCF SETTINGS
------------
Hamiltonian:
 Density Functional     Method          .... DFT(GTOs)
 Exchange Functional    Exchange        .... PBE
   PBE kappa parameter   XKappa         ....  0.804000
   PBE mue parameter    XMuePBE         ....  0.219520
 Correlation Functional Correlation     .... PBE
   PBE beta parameter  CBetaPBE         ....  0.066725
 LDA part of GGA corr.  LDAOpt          .... PW91-LDA
 Gradients option       PostSCFGGA      .... off
 Hybrid DFT is turned on
   Fraction HF Exchange ScalHFX         ....  0.250000
   Scaling of DF-GGA-X  ScalDFX         ....  0.750000
   Scaling of DF-GGA-C  ScalDFC         ....  1.000000
   Scaling of DF-LDA-C  ScalLDAC        ....  1.000000
   Perturbative correction              ....  0.000000
   Density functional embedding theory  .... OFF
   NL short-range parameter             ....  6.900000
 RI-approximation to the Coulomb term is turned on
   Number of AuxJ basis functions       .... 164
   RIJ-COSX (HFX calculated with COS-X)).... on


General Settings:
 Integral files         IntName         .... input
 Hartree-Fock type      HFTyp           .... RHF
 Total Charge           Charge          ....    0
 Multiplicity           Mult            ....    1
 Number of Electrons    NEL             ....   18
 Basis Dimension        Dim             ....   98
 Nuclear Repulsion      ENuc            ....     42.1768814879 Eh

Convergence Acceleration:
 DIIS                   CNVDIIS         .... on
   Start iteration      DIISMaxIt       ....    12
   Startup error        DIISStart       ....  0.200000
   # of expansion vecs  DIISMaxEq       ....     5
   Bias factor          DIISBfac        ....   1.050
   Max. coefficient     DIISMaxC        ....  10.000
 Trust-Rad. Augm. Hess. CNVTRAH         .... auto
   Auto Start mean grad. ratio tolernc. ....  1.125000
   Auto Start start iteration           ....     1
   Auto Start num. interpolation iter.  ....    10
   Max. Number of Micro iterations      ....    16
   Max. Number of Macro iterations      .... Maxiter - #DIIS iter
   Number of Davidson start vectors     ....     2
   Converg. threshold I  (grad. norm)   ....   1.000e-05
   Converg. threshold II (energy diff.) ....   1.000e-08
   Grad. Scal. Fac. for Micro threshold ....   0.100
   Minimum threshold for Micro iter.    ....   0.010
   NR start threshold (gradient norm)   ....   0.001
   Initial trust radius                 ....   0.400
   Minimum AH scaling param. (alpha)    ....   1.000
   Maximum AH scaling param. (alpha)    .... 1000.000
   Orbital update algorithm             .... Taylor
   White noise on init. David. guess    .... on
   Maximum white noise                  ....   0.010
   Quad. conv. algorithm                .... NR
 SOSCF                  CNVSOSCF        .... on
   Start iteration      SOSCFMaxIt      ....   150
   Startup grad/error   SOSCFStart      ....  0.003300
 Level Shifting         CNVShift        .... on
   Level shift para.    LevelShift      ....    0.2500
   Turn off err/grad.   ShiftErr        ....    0.0010
 Zerner damping         CNVZerner       .... off
 Static damping         CNVDamp         .... on
   Fraction old density DampFac         ....    0.7000
   Max. Damping (<1)    DampMax         ....    0.9800
   Min. Damping (>=0)   DampMin         ....    0.0000
   Turn off err/grad.   DampErr         ....    0.1000
 Fernandez-Rico         CNVRico         .... off

SCF Procedure:
 Maximum # iterations   MaxIter         ....   125
 SCF integral mode      SCFMode         .... Direct
   Integral package                     .... SHARK and LIBINT hybrid scheme
 Reset frequency        DirectResetFreq ....    20
 Integral Threshold     Thresh          ....  2.500e-11 Eh
 Primitive CutOff       TCut            ....  2.500e-12 Eh

Convergence Tolerance:
 Convergence Check Mode ConvCheckMode   .... Total+1el-Energy
 Convergence forced     ConvForced      .... 0
 Energy Change          TolE            ....  1.000e-08 Eh
 1-El. energy change                    ....  1.000e-05 Eh
 Orbital Gradient       TolG            ....  1.000e-05
 Orbital Rotation angle TolX            ....  1.000e-05
 DIIS Error             TolErr          ....  5.000e-07


Diagonalization of the overlap matrix:
Smallest eigenvalue                        ... 4.695e-04
Time for diagonalization                   ...    0.002 sec
Threshold for overlap eigenvalues          ... 1.000e-08
Number of eigenvalues below threshold      ... 0
Time for construction of square roots      ...    0.001 sec
Total time needed                          ...    0.003 sec

---------------------
INITIAL GUESS: MOREAD
---------------------
Guess MOs are being read from file: input.ges
Input Geometry matches current geometry (good)
Input basis set matches current basis set (good)
MOs were renormalized
MOs were reorthogonalized (Cholesky)
                      ------------------
                      INITIAL GUESS DONE (   0.0 sec)
                      ------------------
-------------------
DFT GRID GENERATION
-------------------

General Integration Accuracy     IntAcc      ... 4.388
Radial Grid Type                 RadialGrid  ... OptM3 with GC (2021)
Angular Grid (max. ang.)         AngularGrid ... 4 (Lebedev-302)
Angular grid pruning method      GridPruning ... 4 (adaptive)
Weight generation scheme         WeightScheme... Becke
Basis function cutoff            BFCut       ... 1.0000e-11
Integration weight cutoff        WCut        ... 1.0000e-14
Angular grids for H and He will be reduced by one unit
Partially contracted basis set               ... off
Rotationally invariant grid construction     ... off

Total number of grid points                  ...    31665
Total number of batches                      ...      498
Average number of points per batch           ...       63
Average number of grid points per atom       ...     3958
Time for grid setup =    0.276 sec

--------------------
COSX GRID GENERATION
--------------------

GRIDX 1
-------
General Integration Accuracy     IntAcc      ... 3.816
Radial Grid Type                 RadialGrid  ... OptM3 with GC (2021)
Angular Grid (max. ang.)         AngularGrid ... 1 (Lebedev-50)
Angular grid pruning method      GridPruning ... 4 (adaptive)
Weight generation scheme         WeightScheme... Becke
Basis function cutoff            BFCut       ... 1.0000e-11
Integration weight cutoff        WCut        ... 1.0000e-14
Angular grids for H and He will be reduced by one unit
Partially contracted basis set               ... on
Rotationally invariant grid construction     ... off

Total number of grid points                  ...     4112
Total number of batches                      ...       70
Average number of points per batch           ...       58
Average number of grid points per atom       ...      514
UseSFitting                                  ... on

GRIDX 2
-------
General Integration Accuracy     IntAcc      ... 4.020
Radial Grid Type                 RadialGrid  ... OptM3 with GC (2021)
Angular Grid (max. ang.)         AngularGrid ... 2 (Lebedev-110)
Angular grid pruning method      GridPruning ... 4 (adaptive)
Weight generation scheme         WeightScheme... Becke
Basis function cutoff            BFCut       ... 1.0000e-11
Integration weight cutoff        WCut        ... 1.0000e-14
Angular grids for H and He will be reduced by one unit
Partially contracted basis set               ... on
Rotationally invariant grid construction     ... off

Total number of grid points                  ...     8384
Total number of batches                      ...      136
Average number of points per batch           ...       61
Average number of grid points per atom       ...     1048
UseSFitting                                  ... on

GRIDX 3
-------
General Integration Accuracy     IntAcc      ... 4.338
Radial Grid Type                 RadialGrid  ... OptM3 with GC (2021)
Angular Grid (max. ang.)         AngularGrid ... 3 (Lebedev-194)
Angular grid pruning method      GridPruning ... 4 (adaptive)
Weight generation scheme         WeightScheme... Becke
Basis function cutoff            BFCut       ... 1.0000e-11
Integration weight cutoff        WCut        ... 1.0000e-14
Angular grids for H and He will be reduced by one unit
Partially contracted basis set               ... on
Rotationally invariant grid construction     ... off

Total number of grid points                  ...    18442
Total number of batches                      ...      290
Average number of points per batch           ...       63
Average number of grid points per atom       ...     2305
UseSFitting                                  ... on

Time for X-Grid setup             =    0.320 sec

--------------
SCF ITERATIONS
--------------
ITER       Energy         Delta-E        Max-DP      RMS-DP      [F,P]     Damp
               ***  Starting incremental Fock matrix formation  ***
                      *** Initiating the SOSCF procedure ***
                      *** Re-Reading the Fockian *** 
                      *** Removing any level shift *** 
ITER      Energy       Delta-E        Grad      Rot      Max-DP    RMS-DP
  0    -79.74550668 -79.7455066787  0.000009  0.000009  0.000013  0.000001
               *** Restarting incremental Fock matrix formation ***
                  ***Gradient check signals convergence***
              ***Rediagonalizing the Fockian in SOSCF/NRSCF***

               *****************************************************
               *                     SUCCESS                       *
               *           SCF CONVERGED AFTER   1 CYCLES          *
               *****************************************************

Old exchange energy                            =     -3.122189156 Eh
New exchange energy                            =     -3.122183209 Eh
Exchange energy change after final integration =      0.000005947 Eh
Total energy after final integration           =    -79.745500733 Eh
Final COS-X integration done in                =     2.111 sec

----------------
TOTAL SCF ENERGY
----------------

Total Energy       :          -79.74550073 Eh           -2169.98539 eV

Components:
Nuclear Repulsion  :           42.17688149 Eh            1147.69129 eV
Electronic Energy  :         -121.92238222 Eh           -3317.67669 eV
One Electron Energy:         -189.21758177 Eh           -5148.87216 eV
Two Electron Energy:           67.29519955 Eh            1831.19548 eV
Max COSX asymmetry :            0.00000097 Eh               0.00003 eV

Virial components:
Potential Energy   :         -159.02205147 Eh           -4327.21001 eV
Kinetic Energy     :           79.27655074 Eh            2157.22462 eV
Virial Ratio       :            2.00591537


DFT components:
N(Alpha)           :        9.000000386810 electrons
N(Beta)            :        9.000000386810 electrons
N(Total)           :       18.000000773621 electrons
E(X)               :       -9.304666604567 Eh       
E(C)               :       -0.562013649643 Eh       
E(XC)              :       -9.866680254210 Eh       
DFET-embed. en.    :        0.000000000000 Eh       

---------------
SCF CONVERGENCE
---------------

  Last Energy change         ...   -1.4819e-09  Tolerance :   1.0000e-08
  Last MAX-Density change    ...    6.6613e-16  Tolerance :   1.0000e-07
  Last RMS-Density change    ...    1.5645e-17  Tolerance :   5.0000e-09
  Last Orbital Gradient      ...    1.9159e-06  Tolerance :   1.0000e-05
  Last Orbital Rotation      ...    1.7510e-06  Tolerance :   1.0000e-05

             **** THE GBW FILE WAS UPDATED (input.gbw) ****
             **** DENSITY input.scfp WAS UPDATED ****
             **** ENERGY FILE WAS UPDATED (input.en.tmp) ****
             **** THE GBW FILE WAS UPDATED (input.gbw) ****
             **** DENSITY input.scfp WAS UPDATED ****
----------------
ORBITAL ENERGIES
----------------

  NO   OCC          E(Eh)            E(eV) 
   0   2.0000     -10.206088      -277.7218 
   1   2.0000     -10.205870      -277.7159 
   2   2.0000      -0.773095       -21.0370 
   3   2.0000      -0.630586       -17.1591 
   4   2.0000      -0.449263       -12.2251 
   5   2.0000      -0.449258       -12.2249 
   6   2.0000      -0.373514       -10.1638 
   7   2.0000      -0.351089        -9.5536 
   8   2.0000      -0.351076        -9.5533 
   9   0.0000       0.053327         1.4511 
  10   0.0000       0.089285         2.4296 
  11   0.0000       0.101453         2.7607 
  12   0.0000       0.101468         2.7611 
  13   0.0000       0.182685         4.9711 
  14   0.0000       0.182695         4.9714 
  15   0.0000       0.202221         5.5027 
  16   0.0000       0.209376         5.6974 
  17   0.0000       0.221783         6.0350 
  18   0.0000       0.221814         6.0359 
  19   0.0000       0.284303         7.7363 
  20   0.0000       0.284313         7.7365 
  21   0.0000       0.396341        10.7850 
  22   0.0000       0.426481        11.6051 
  23   0.0000       0.435688        11.8557 
  24   0.0000       0.435706        11.8562 
  25   0.0000       0.466199        12.6859 
  26   0.0000       0.527559        14.3556 
  27   0.0000       0.527580        14.3562 
  28   0.0000       0.538615        14.6565 
  29   0.0000       0.593854        16.1596 
  30   0.0000       0.593879        16.1603 
  31   0.0000       0.645629        17.5684 
  32   0.0000       0.927293        25.2329 
  33   0.0000       0.927311        25.2334 
  34   0.0000       0.934651        25.4331 
  35   0.0000       0.986039        26.8315 
  36   0.0000       0.986042        26.8316 
  37   0.0000       1.062919        28.9235 
  38   0.0000       1.062928        28.9238 
  39   0.0000       1.119167        30.4541 
  40   0.0000       1.473318        40.0910 
  41   0.0000       1.476325        40.1728 
  42   0.0000       1.476434        40.1758 
  43   0.0000       1.543186        41.9922 
  44   0.0000       1.552912        42.2569 
  45   0.0000       1.570038        42.7229 
  46   0.0000       1.648129        44.8479 
  47   0.0000       1.648146        44.8483 
  48   0.0000       1.689165        45.9645 
  49   0.0000       1.777009        48.3549 
  50   0.0000       1.796027        48.8724 
  51   0.0000       1.796045        48.8729 
  52   0.0000       1.977485        53.8101 
  53   0.0000       1.977511        53.8108 
  54   0.0000       1.980221        53.8846 
  55   0.0000       2.152551        58.5739 
  56   0.0000       2.152600        58.5752 
  57   0.0000       2.181335        59.3571 
  58   0.0000       2.232696        60.7548 
  59   0.0000       2.311829        62.9081 
  60   0.0000       2.311880        62.9094 
  61   0.0000       2.421756        65.8993 
  62   0.0000       2.421802        65.9006 
  63   0.0000       2.535203        68.9864 
  64   0.0000       2.535239        68.9874 
  65   0.0000       2.581114        70.2357 
  66   0.0000       2.581162        70.2370 
  67   0.0000       2.689454        73.1838 
  68   0.0000       2.888441        78.5985 
  69   0.0000       2.888473        78.5993 
  70   0.0000       2.896733        78.8241 
  71   0.0000       2.924171        79.5707 
  72   0.0000       2.924203        79.5716 
  73   0.0000       3.048806        82.9622 
  74   0.0000       3.082891        83.8897 
  75   0.0000       3.211984        87.4025 
  76   0.0000       3.220646        87.6382 
  77   0.0000       3.220697        87.6396 
  78   0.0000       3.270349        88.9907 
  79   0.0000       3.270370        88.9913 
  80   0.0000       3.330666        90.6320 
  81   0.0000       3.497454        95.1706 
  82   0.0000       3.532618        96.1274 
  83   0.0000       3.532624        96.1276 
  84   0.0000       3.811935       103.7280 
  85   0.0000       3.830776       104.2407 
  86   0.0000       3.830782       104.2409 
  87   0.0000       3.933761       107.0431 
  88   0.0000       3.933783       107.0437 
  89   0.0000       4.099147       111.5435 
  90   0.0000       4.099183       111.5444 
  91   0.0000       4.404468       119.8517 
  92   0.0000       4.470181       121.6398 
  93   0.0000       4.605667       125.3266 
  94   0.0000       4.605777       125.3296 
  95   0.0000       4.833108       131.5156 
  96   0.0000      22.260925       605.7506 
  97   0.0000      22.426285       610.2502 

                    ********************************
                    * MULLIKEN POPULATION ANALYSIS *
                    ********************************

-----------------------
MULLIKEN ATOMIC CHARGES
-----------------------
   0 C :   -0.347582
   1 C :   -0.347159
   2 H :    0.115828
   3 H :    0.115768
   4 H :    0.115830
   5 H :    0.115726
   6 H :    0.115806
   7 H :    0.115784
Sum of atomic charges:    0.0000000

--------------------------------
MULLIKEN REDUCED ORBITAL CHARGES
--------------------------------
  0 C s       :     3.228193  s :     3.228193
      pz      :     1.054821  p :     3.060947
      px      :     0.950730
      py      :     1.055397
      dz2     :     0.006338  d :     0.054982
      dxz     :     0.017758
      dyz     :     0.003790
      dx2y2   :     0.008362
      dxy     :     0.018733
      f0      :     0.000685  f :     0.003460
      f+1     :     0.000323
      f-1     :     0.000298
      f+2     :     0.000588
      f-2     :     0.000052
      f+3     :     0.000743
      f-3     :     0.000771
  1 C s       :     3.227924  s :     3.227924
      pz      :     1.054740  p :     3.060798
      px      :     0.950654
      py      :     1.055403
      dz2     :     0.005172  d :     0.054979
      dxz     :     0.018593
      dyz     :     0.004503
      dx2y2   :     0.008820
      dxy     :     0.017890
      f0      :     0.000433  f :     0.003459
      f+1     :     0.000523
      f-1     :     0.000298
      f+2     :     0.000782
      f-2     :    -0.000010
      f+3     :     0.000597
      f-3     :     0.000835
  2 H s       :     0.863018  s :     0.863018
      pz      :     0.011089  p :     0.021154
      px      :     0.005216
      py      :     0.004849
  3 H s       :     0.863076  s :     0.863076
      pz      :     0.007261  p :     0.021156
      px      :     0.005882
      py      :     0.008013
  4 H s       :     0.863019  s :     0.863019
      pz      :     0.004926  p :     0.021151
      px      :     0.005774
      py      :     0.010452
  5 H s       :     0.863118  s :     0.863118
      pz      :     0.007821  p :     0.021156
      px      :     0.005355
      py      :     0.007980
  6 H s       :     0.863036  s :     0.863036
      pz      :     0.005193  p :     0.021158
      px      :     0.005445
      py      :     0.010520
  7 H s       :     0.863061  s :     0.863061
      pz      :     0.010264  p :     0.021155
      px      :     0.006071
      py      :     0.004819


                     *******************************
                     * LOEWDIN POPULATION ANALYSIS *
                     *******************************

----------------------
LOEWDIN ATOMIC CHARGES
----------------------
   0 C :   -0.350210
   1 C :   -0.350187
   2 H :    0.116733
   3 H :    0.116737
   4 H :    0.116739
   5 H :    0.116746
   6 H :    0.116716
   7 H :    0.116725

-------------------------------
LOEWDIN REDUCED ORBITAL CHARGES
-------------------------------
  0 C s       :     2.842464  s :     2.842464
      pz      :     1.079957  p :     3.221707
      px      :     1.061698
      py      :     1.080052
      dz2     :     0.039704  d :     0.260745
      dxz     :     0.070726
      dyz     :     0.022976
      dx2y2   :     0.049254
      dxy     :     0.078086
      f0      :     0.003687  f :     0.025293
      f+1     :     0.002965
      f-1     :     0.001408
      f+2     :     0.004527
      f-2     :     0.003113
      f+3     :     0.004225
      f-3     :     0.005368
  1 C s       :     2.842445  s :     2.842445
      pz      :     1.079945  p :     3.221698
      px      :     1.061695
      py      :     1.080059
      dz2     :     0.029810  d :     0.260749
      dxz     :     0.077802
      dyz     :     0.029091
      dx2y2   :     0.053136
      dxy     :     0.070910
      f0      :     0.003004  f :     0.025295
      f+1     :     0.004189
      f-1     :     0.001578
      f+2     :     0.004330
      f-2     :     0.002311
      f+3     :     0.003777
      f-3     :     0.006106
  2 H s       :     0.821336  s :     0.821336
      pz      :     0.032755  p :     0.061931
      px      :     0.014391
      py      :     0.014784
  3 H s       :     0.821331  s :     0.821331
      pz      :     0.021925  p :     0.061932
      px      :     0.016026
      py      :     0.023981
  4 H s       :     0.821337  s :     0.821337
      pz      :     0.015056  p :     0.061924
      px      :     0.015754
      py      :     0.031114
  5 H s       :     0.821333  s :     0.821333
      pz      :     0.023289  p :     0.061921
      px      :     0.014726
      py      :     0.023906
  6 H s       :     0.821342  s :     0.821342
      pz      :     0.015724  p :     0.061942
      px      :     0.014942
      py      :     0.031276
  7 H s       :     0.821341  s :     0.821341
      pz      :     0.030724  p :     0.061934
      px      :     0.016507
      py      :     0.014703


                      *****************************
                      * MAYER POPULATION ANALYSIS *
                      *****************************

  NA   - Mulliken gross atomic population
  ZA   - Total nuclear charge
  QA   - Mulliken gross atomic charge
  VA   - Mayer's total valence
  BVA  - Mayer's bonded valence
  FA   - Mayer's free valence

  ATOM       NA         ZA         QA         VA         BVA        FA
  0 C      6.3476     6.0000    -0.3476     3.8961     3.8961     0.0000
  1 C      6.3472     6.0000    -0.3472     3.8961     3.8961     0.0000
  2 H      0.8842     1.0000     0.1158     0.9716     0.9716     0.0000
  3 H      0.8842     1.0000     0.1158     0.9716     0.9716    -0.0000
  4 H      0.8842     1.0000     0.1158     0.9716     0.9716     0.0000
  5 H      0.8843     1.0000     0.1157     0.9716     0.9716    -0.0000
  6 H      0.8842     1.0000     0.1158     0.9716     0.9716     0.0000
  7 H      0.8842     1.0000     0.1158     0.9716     0.9716     0.0000

  Mayer bond orders larger than 0.100000
B(  0-C ,  1-C ) :   0.9795 B(  0-C ,  2-H ) :   0.9767 B(  0-C ,  3-H ) :   0.9767 
B(  0-C ,  4-H ) :   0.9767 B(  1-C ,  5-H ) :   0.9767 B(  1-C ,  6-H ) :   0.9767 
B(  1-C ,  7-H ) :   0.9767 

-------
TIMINGS
-------

Total SCF time: 0 days 0 hours 0 min 5 sec 

Total time                  ....       5.855 sec
Sum of individual times     ....       5.731 sec  ( 97.9%)

Fock matrix formation       ....       5.125 sec  ( 87.5%)
  Split-RI-J                ....       0.307 sec  (  6.0% of F)
  Chain of spheres X        ....       4.100 sec  ( 80.0% of F)
  XC integration            ....       0.729 sec  ( 14.2% of F)
    Basis function eval.    ....       0.244 sec  ( 33.4% of XC)
    Density eval.           ....       0.163 sec  ( 22.3% of XC)
    XC-Functional eval.     ....       0.089 sec  ( 12.2% of XC)
    XC-Potential eval.      ....       0.179 sec  ( 24.6% of XC)
Diagonalization             ....       0.003 sec  (  0.0%)
Density matrix formation    ....       0.000 sec  (  0.0%)
Population analysis         ....       0.003 sec  (  0.0%)
Initial guess               ....       0.003 sec  (  0.0%)
Orbital Transformation      ....       0.000 sec  (  0.0%)
Orbital Orthonormalization  ....       0.001 sec  (  0.0%)
DIIS solution               ....       0.000 sec  (  0.0%)
SOSCF solution              ....       0.001 sec  (  0.0%)
Grid generation             ....       0.596 sec  ( 10.2%)

Maximum memory used throughout the entire SCF-calculation: 69.1 MB

-------------------------   --------------------
FINAL SINGLE POINT ENERGY       -79.745500732938
-------------------------   --------------------

------------------------------------------------------------------------------
                         ORCA SCF GRADIENT CALCULATION
------------------------------------------------------------------------------

 ... reading COSX grid (gridx3)
Gradient of the Kohn-Sham DFT energy:
Kohn-Sham wavefunction type      ... RKS
Hartree-Fock exchange scaling    ...    0.250
Number of operators              ...    1
Number of atoms                  ...    8
Basis set dimensions             ...   98
Integral neglect threshold       ... 2.5e-11
Integral primitive cutoff        ... 2.5e-12
SHARK Integral package           ... ON

Nuc. rep. gradient       (SHARK) ... done (  0.0 sec)
HCore & Overlap gradient (SHARK) ... done (  0.1 sec)
RI-J gradient            (SHARK) ... done (  0.4 sec)
COSX-gradient                    ... done (  2.6 sec)
Exchange-correlation gradient    ... done

------------------
CARTESIAN GRADIENT
------------------

   1   C   :   -0.005419923   -0.000105893    0.000425840
   2   C   :    0.005471987    0.000060818   -0.000408086
   3   H   :    0.003127499   -0.000501370    0.002083709
   4   H   :    0.002839116   -0.001726069   -0.001840815
   5   H   :    0.002870189    0.002312087   -0.000945243
   6   H   :   -0.003051340   -0.001772685   -0.001415486
   7   H   :   -0.003030459    0.002216851   -0.000423946
   8   H   :   -0.002775261   -0.000554687    0.002520268

Difference to translation invariance:
           :    0.0000318080   -0.0000709475   -0.0000037588

Difference to rotation invariance:
           :   -0.0000349829   -0.0000543054   -0.0001947001

Norm of the cartesian gradient     ...    0.0120854122
RMS gradient                       ...    0.0024669244
MAX gradient                       ...    0.0054719865

-------
TIMINGS
-------

Total SCF gradient time            ...        5.459 sec

One electron gradient       ....       0.056 sec  (  1.0%)
RI-J Coulomb gradient       ....       0.375 sec  (  6.9%)
COSX gradient               ....       2.606 sec  ( 47.7%)
XC gradient                 ....       2.095 sec  ( 38.4%)

Maximum memory used throughout the entire SCFGRAD-calculation: 43.5 MB

                            ***************************************
                            *     ORCA property calculations      *
                            ***************************************

                                    ---------------------
                                    Active property flags
                                    ---------------------
   (+) Dipole Moment
   (+) Chemical Shifts
   (+) Nuclear properties (Hyperfine,Quadrupole)


------------------------------------------------------------------------------
                       ORCA ELECTRIC PROPERTIES CALCULATION
------------------------------------------------------------------------------

Dipole Moment Calculation                       ... on
Quadrupole Moment Calculation                   ... off
Polarizability Calculation                      ... off
GBWName                                         ... input.gbw
Electron density                                ... input.scfp
The origin for moment calculation is the CENTER OF MASS  = ( 3.150371,  0.414126 -0.167439)

-------------
DIPOLE MOMENT
-------------
                                X             Y             Z
Electronic contribution:      0.00007       0.00003      -0.00004
Nuclear contribution   :     -0.00006      -0.00015      -0.00004
                        -----------------------------------------
Total Dipole Moment    :      0.00001      -0.00012      -0.00007
                        -----------------------------------------
Magnitude (a.u.)       :      0.00014
Magnitude (Debye)      :      0.00036



--------------------
Rotational spectrum 
--------------------
 
Rotational constants in cm-1:     2.659370     0.665332     0.665327 
Rotational constants in MHz : 79725.896487 19946.151077 19946.016656 

 Dipole components along the rotational axes: 
x,y,z [a.u.] :    -0.000012     0.000130    -0.000053 
x,y,z [Debye]:    -0.000030     0.000330    -0.000135 

 
------------------------------------------------------------------------------
                                ORCA EPR/NMR CALCULATION
------------------------------------------------------------------------------

GBWName                      ... input.gbw
Electron density             ... input.scfp
Spin density                 ... input.scfr
Treatment of gauge           ... GIAO (approximations 1/2el = 0,0)
Details of the CP(SCF) procedure:
       Solver   = POPLE   
       MaxIter  =    64   
       Tolerance=    1.000e-04
       COSX Grid=     1   
       Op-0     =   0-  8 =>   9- 97
Multiplicity                 ... 1
g-tensor                     ... 0
NMR chemical shifts          ... 1
NMR spin-spin couplings      ... 0
NMR spectrum                 ... 0
Number of nuclei for epr/nmr ... 8
   Nucleus:   0C 
       Hyperfine : Isotope=   13 I=   0.500 P= 134.190
       Quadrupole: Isotope=   13 I=   0.500 Q=   0.000
       Spin-Orbit: Zeff=   3.600
       Nuclear Spin-Spin: Gn=   0.000
       EPRNMR Input: 
       rho(0)=N f(grad)=N a(iso)=N a(dip)=N a(orb)=N sigma(nmr)=Y spin-spin(nmr)=all-N,DSO-N,PSO-N,FC-N,SD-N
   Nucleus:   1C 
       Hyperfine : Isotope=   13 I=   0.500 P= 134.190
       Quadrupole: Isotope=   13 I=   0.500 Q=   0.000
       Spin-Orbit: Zeff=   3.600
       Nuclear Spin-Spin: Gn=   0.000
       EPRNMR Input: 
       rho(0)=N f(grad)=N a(iso)=N a(dip)=N a(orb)=N sigma(nmr)=Y spin-spin(nmr)=all-N,DSO-N,PSO-N,FC-N,SD-N
   Nucleus:   2H 
       Hyperfine : Isotope=    1 I=   0.500 P= 533.551
       Quadrupole: Isotope=    2 I=   1.000 Q=   0.003
       Spin-Orbit: Zeff=   1.000
       Nuclear Spin-Spin: Gn=   0.000
       EPRNMR Input: 
       rho(0)=N f(grad)=N a(iso)=N a(dip)=N a(orb)=N sigma(nmr)=Y spin-spin(nmr)=all-N,DSO-N,PSO-N,FC-N,SD-N
   Nucleus:   3H 
       Hyperfine : Isotope=    1 I=   0.500 P= 533.551
       Quadrupole: Isotope=    2 I=   1.000 Q=   0.003
       Spin-Orbit: Zeff=   1.000
       Nuclear Spin-Spin: Gn=   0.000
       EPRNMR Input: 
       rho(0)=N f(grad)=N a(iso)=N a(dip)=N a(orb)=N sigma(nmr)=Y spin-spin(nmr)=all-N,DSO-N,PSO-N,FC-N,SD-N
   Nucleus:   4H 
       Hyperfine : Isotope=    1 I=   0.500 P= 533.551
       Quadrupole: Isotope=    2 I=   1.000 Q=   0.003
       Spin-Orbit: Zeff=   1.000
       Nuclear Spin-Spin: Gn=   0.000
       EPRNMR Input: 
       rho(0)=N f(grad)=N a(iso)=N a(dip)=N a(orb)=N sigma(nmr)=Y spin-spin(nmr)=all-N,DSO-N,PSO-N,FC-N,SD-N
   Nucleus:   5H 
       Hyperfine : Isotope=    1 I=   0.500 P= 533.551
       Quadrupole: Isotope=    2 I=   1.000 Q=   0.003
       Spin-Orbit: Zeff=   1.000
       Nuclear Spin-Spin: Gn=   0.000
       EPRNMR Input: 
       rho(0)=N f(grad)=N a(iso)=N a(dip)=N a(orb)=N sigma(nmr)=Y spin-spin(nmr)=all-N,DSO-N,PSO-N,FC-N,SD-N
   Nucleus:   6H 
       Hyperfine : Isotope=    1 I=   0.500 P= 533.551
       Quadrupole: Isotope=    2 I=   1.000 Q=   0.003
       Spin-Orbit: Zeff=   1.000
       Nuclear Spin-Spin: Gn=   0.000
       EPRNMR Input: 
       rho(0)=N f(grad)=N a(iso)=N a(dip)=N a(orb)=N sigma(nmr)=Y spin-spin(nmr)=all-N,DSO-N,PSO-N,FC-N,SD-N
   Nucleus:   7H 
       Hyperfine : Isotope=    1 I=   0.500 P= 533.551
       Quadrupole: Isotope=    2 I=   1.000 Q=   0.003
       Spin-Orbit: Zeff=   1.000
       Nuclear Spin-Spin: Gn=   0.000
       EPRNMR Input: 
       rho(0)=N f(grad)=N a(iso)=N a(dip)=N a(orb)=N sigma(nmr)=Y spin-spin(nmr)=all-N,DSO-N,PSO-N,FC-N,SD-N
Forming RHS of the CP-SCF equations         ... 
Calculating right hand sides for GIAO treatment        ... 
  Entering RightHandSide GIAO. ScalHFX=    0.2500 NeedHFX=1
     -> 1-electron GIAO integrals will be done analytically
     -> RIJCOSX used in SCF. Same chosen for GIAO calculation.
     Making grid for GIAO integrations   ...

GRID GIAO
---------

General Integration Accuracy     IntAcc      ... 4.388
Radial Grid Type                 RadialGrid  ... OptM3 with GC (2021)
Angular Grid (max. ang.)         AngularGrid ... 4 (Lebedev-302)
Angular grid pruning method      GridPruning ... 4 (adaptive)
Weight generation scheme         WeightScheme... Becke
Basis function cutoff            BFCut       ... 1.0000e-11
Integration weight cutoff        WCut        ... 1.0000e-14
Angular grids for H and He will be reduced by one unit
Partially contracted basis set               ... off
Rotationally invariant grid construction     ... off

Total number of grid points                  ...    31665
Total number of batches                      ...      498
Average number of points per batch           ...       63
Average number of grid points per atom       ...     3958

  One-electron GIAO integrals (SHARK)     ... done
  Calculating G(B)[P]                     ... (RI-J: SHARK-ok) (COSX-ok) (add-J+K:ok) => dG/dB done
  DFT XC-terms                            ... done
  Extracting occupied and virtual blocks  ... 
  Operator  0  NO=   9 NV=  89 
  Transforming and RHS contribution       ... done
  Adding eps_i * S(B)_ai terms            ... done
  Projecting overlap derivatives          ... done
  Building G[dS/dB_ij] (COSX)             ... done
  Transforming to MO basis                ... done
  Summing G[dS/dB_ij] into RHS contribs.  ... done

  GIAO profiling information: 
    Total GIAO time               ...       5.7 sec
       GIAO 1-electron integrals  ...       0.0 sec (  0.4%)
       GIAO G(dS/dB) terms        ...       0.4 sec (  7.8%)
       GIAO RI-J                  ...       0.4 sec (  6.9%)
       GIAO COSX                  ...       1.5 sec ( 25.5%)
       GIAO XC-terms              ...       3.1 sec ( 54.0%)
       Right hand side assembly   ...       0.0 sec (  0.0%)

  GIAO right hand side done


------------------------------------------------------------------------------
                           ORCA CP-SCF CALCULATION
------------------------------------------------------------------------------

Input orbitals are from        ... input.gbw
Input Perturbation             ... input.pin.tmp
Wavefunction output            ... input.pout.tmp
Perturbation mode              ... Imaginary perturbation
Solver                         ... POPLE
Max. number of iterations      ... 64
Convergence tolerance          ... 1.000e-04
Integral handling              ... Direct
DFT GridXC                     ... 1
COSX GridX                     ... 1
COSX IntAccX                   ... 3.067
COSX Algorithm                 ... Auto
Number of perturbations        ... 3
Number of operators            ... 1
Orbital ranges used for CP-SCF:
 Operator 0:  Orbitals   0...  8  to   9... 97
Variables per perturbation     ... 801
DFT calculation                         ... on
XC functional terms                     ... off
Hybrid DFT                              ... on
   Exchange mixing (SCF)                ...  0.250
   Exchange mixing (CP-SCF)             ...  0.250
   GGA exch. scaling(SCF)               ...  0.750
   GGA exch. scaling (CP-SCF)           ...  0.750
   GGA corr. scaling (SCF)              ...  1.000
   GGA corr. scaling (CP-SCF)           ...  1.000

CP-SCF GRID
-----------

General Integration Accuracy     IntAcc      ... 3.467
Radial Grid Type                 RadialGrid  ... OptM3 with GC (2021)
Angular Grid (max. ang.)         AngularGrid ... 1 (Lebedev-50)
Angular grid pruning method      GridPruning ... 4 (adaptive)
Weight generation scheme         WeightScheme... Becke
Basis function cutoff            BFCut       ... 1.0000e-11
Integration weight cutoff        WCut        ... 1.0000e-14
Angular grids for H and He will be reduced by one unit
Partially contracted basis set               ... off
Rotationally invariant grid construction     ... off

Total number of grid points                  ...     4373
Total number of batches                      ...       72
Average number of points per batch           ...       60
Average number of grid points per atom       ...      547

CP-SCF GRIDX
------------

General Integration Accuracy     IntAcc      ... 3.067
Radial Grid Type                 RadialGrid  ... OptM3 with GC (2021)
Angular Grid (max. ang.)         AngularGrid ... 1 (Lebedev-50)
Angular grid pruning method      GridPruning ... 4 (adaptive)
Weight generation scheme         WeightScheme... Becke
Basis function cutoff            BFCut       ... 1.0000e-11
Integration weight cutoff        WCut        ... 1.0000e-14
Angular grids for H and He will be reduced by one unit
Partially contracted basis set               ... on
Rotationally invariant grid construction     ... off

Total number of grid points                  ...     2064
Total number of batches                      ...       36
Average number of points per batch           ...       57
Average number of grid points per atom       ...      258

Memory available               ... 997.7 MB
Memory needed per perturbation ...   1.1 MB
Perturbations treated per batch... 3
Number of batches              ... 1
     CP-SCF ITERATION   0:   2.0169e-01 (   0.4 sec   0/  3 done)
     CP-SCF ITERATION   1:   2.2630e-03 (   0.4 sec   0/  3 done)
     CP-SCF ITERATION   2:   9.5904e-05 (   0.4 sec   3/  3 done)
                    *** THE CP-SCF HAS CONVERGED ***

Forming final perturbed densities           ... done
Transforming perturbed density to AO basis  ... done

Magnetic field perturbation calculated in  7.109 sec

---------------
CHEMICAL SHIFTS
---------------

Note: using conversion factor for au to ppm alpha^2/2 =   26.625677252 
GIAO: Analytic para- and diamagnetic shielding integrals (SHARK)       ...done
 --------------
 Nucleus   0C :
 --------------

Diamagnetic contribution to the shielding tensor (ppm) : 
           253.919         -0.420        -0.966
             0.081        242.969        -0.011
            -0.857          0.032       243.042

Paramagnetic contribution to the shielding tensor (ppm): 
           -57.038          0.555        -0.600
             0.085        -65.985         0.019
            -0.690         -0.076       -65.931

Total shielding tensor (ppm): 
           196.881          0.135        -1.566
             0.166        176.984         0.008
            -1.547         -0.044       177.111


 Diagonalized sT*s matrix:
 
 sDSO           242.969          242.970          253.992  iso=     246.644
 sPSO           -65.990          -65.977          -56.988  iso=     -62.985
        ---------------  ---------------  ---------------
 Total          176.979          176.993          197.004  iso=     183.659

 --------------
 Nucleus   1C :
 --------------

Diamagnetic contribution to the shielding tensor (ppm) : 
           253.876          0.651        -1.394
             0.143        234.817        -0.006
            -1.494         -0.046       234.921

Paramagnetic contribution to the shielding tensor (ppm): 
           -56.992         -0.488        -0.164
             0.007        -57.834        -0.047
            -0.074          0.046       -57.827

Total shielding tensor (ppm): 
           196.884          0.163        -1.559
             0.150        176.983        -0.053
            -1.568         -0.000       177.094


 Diagonalized sT*s matrix:
 
 sDSO           234.817          234.808          253.990  iso=     241.205
 sPSO           -57.855          -57.816          -56.982  iso=     -57.551
        ---------------  ---------------  ---------------
 Total          176.962          176.992          197.008  iso=     183.654

 --------------
 Nucleus   2H :
 --------------

Diamagnetic contribution to the shielding tensor (ppm) : 
            28.886          0.761        -4.969
             0.730         27.881        -2.189
            -3.218         -2.223        36.912

Paramagnetic contribution to the shielding tensor (ppm): 
             2.724          0.173         0.746
            -0.182         -1.336         0.347
             0.628          0.363        -2.705

Total shielding tensor (ppm): 
            31.610          0.934        -4.223
             0.548         26.545        -1.842
            -2.590         -1.860        34.207


 Diagonalized sT*s matrix:
 
 sDSO            27.367           27.591           38.720  iso=      31.226
 sPSO            -1.246            1.732           -1.802  iso=      -0.439
        ---------------  ---------------  ---------------
 Total           26.121           29.323           36.918  iso=      30.788

 --------------
 Nucleus   3H :
 --------------

Diamagnetic contribution to the shielding tensor (ppm) : 
            30.216          4.187         3.958
             3.196         32.383         4.466
             2.756          4.405        31.205

Paramagnetic contribution to the shielding tensor (ppm): 
             2.289         -0.578        -1.106
            -0.806         -1.988        -0.652
            -1.052         -0.697        -1.743

Total shielding tensor (ppm): 
            32.505          3.608         2.852
             2.390         30.394         3.814
             1.704          3.708        29.463


 Diagonalized sT*s matrix:
 
 sDSO            27.331           27.774           38.698  iso=      31.268
 sPSO            -1.210            1.548           -1.780  iso=      -0.480
        ---------------  ---------------  ---------------
 Total           26.122           29.323           36.918  iso=      30.787

 --------------
 Nucleus   4H :
 --------------

Diamagnetic contribution to the shielding tensor (ppm) : 
            29.686         -5.846         1.415
            -3.983         35.869        -2.278
             1.041         -2.112        27.989

Paramagnetic contribution to the shielding tensor (ppm): 
             2.675          1.352        -0.529
             1.093         -2.525         0.303
            -0.642          0.257        -1.335

Total shielding tensor (ppm): 
            32.361         -4.493         0.886
            -2.891         33.345        -1.975
             0.398         -1.855        26.654


 Diagonalized sT*s matrix:
 
 sDSO            27.409           27.391           38.745  iso=      31.181
 sPSO            -1.288            1.931           -1.828  iso=      -0.395
        ---------------  ---------------  ---------------
 Total           26.121           29.322           36.917  iso=      30.787

 --------------
 Nucleus   5H :
 --------------

Diamagnetic contribution to the shielding tensor (ppm) : 
            29.120         -3.368        -4.067
            -4.632         27.855         6.362
            -4.976          6.278        27.731

Paramagnetic contribution to the shielding tensor (ppm): 
             2.682          0.392         0.807
             2.882          2.483        -2.273
             2.859         -2.083         2.488

Total shielding tensor (ppm): 
            31.802         -2.976        -3.260
            -1.750         30.338         4.089
            -2.117          4.196        30.219


 Diagonalized sT*s matrix:
 
 sDSO            21.442           25.125           38.140  iso=      28.236
 sPSO             4.678            4.199           -1.224  iso=       2.551
        ---------------  ---------------  ---------------
 Total           26.120           29.324           36.915  iso=      30.787

 --------------
 Nucleus   6H :
 --------------

Diamagnetic contribution to the shielding tensor (ppm) : 
            29.002          5.298        -2.017
             6.383         32.574        -3.906
            -2.539         -3.804        22.878

Paramagnetic contribution to the shielding tensor (ppm): 
             2.918         -1.178         0.301
            -3.865          0.867         1.463
             1.317          1.240         4.129

Total shielding tensor (ppm): 
            31.920          4.120        -1.716
             2.518         33.441        -2.442
            -1.222         -2.564        27.008


 Diagonalized sT*s matrix:
 
 sDSO            21.523           24.743           38.189  iso=      28.151
 sPSO             4.602            4.582           -1.270  iso=       2.638
        ---------------  ---------------  ---------------
 Total           26.125           29.324           36.919  iso=      30.789

 --------------
 Nucleus   7H :
 --------------

Diamagnetic contribution to the shielding tensor (ppm) : 
            30.599         -1.041         5.769
            -1.705         22.075        -2.455
             7.028         -2.543        31.913

Paramagnetic contribution to the shielding tensor (ppm): 
             2.158         -0.055        -1.281
             0.985          4.435         0.806
            -4.177          0.912         1.187

Total shielding tensor (ppm): 
            32.757         -1.096         4.488
            -0.720         26.510        -1.649
             2.852         -1.631        33.100


 Diagonalized sT*s matrix:
 
 sDSO            21.480           24.941           38.165  iso=      28.195
 sPSO             4.644            4.384           -1.247  iso=       2.594
        ---------------  ---------------  ---------------
 Total           26.124           29.325           36.918  iso=      30.789



--------------------------------
CHEMICAL SHIELDING SUMMARY (ppm)
--------------------------------


  Nucleus  Element    Isotropic     Anisotropy
  -------  -------  ------------   ------------
      0       C          183.659         20.018 
      1       C          183.654         20.031 
      2       H           30.788          9.196 
      3       H           30.787          9.196 
      4       H           30.787          9.196 
      5       H           30.787          9.193 
      6       H           30.789          9.194 
      7       H           30.789          9.194 



Maximum memory used throughout the entire EPRNMR-calculation: 29.6 MB

----------------------------------------------------------------------------
                           ORCA NUMERICAL FREQUENCIES
----------------------------------------------------------------------------

Number of atoms                ... 8
Central differences            ... used
Number of displacements        ... 48
Numerical increment            ... 5.000e-03 bohr
IR-spectrum generation         ... on
Raman-spectrum generation      ... off
Surface Crossing Hessian       ... off

The output will be reduced. Please look at the following files:
SCF program output             ... >input.lastscf
Integral program output        ... >input.lastint
Gradient program output        ... >input.lastgrad
Dipole moment program output   ... >input.lastmom
AutoCI program output          ... >input.lastautoci

	<< Calculating on displaced geometry   1 (of  48) >>
	<< Calculating on displaced geometry   2 (of  48) >>
	<< Calculating on displaced geometry   3 (of  48) >>
	<< Calculating on displaced geometry   4 (of  48) >>
	<< Calculating on displaced geometry   5 (of  48) >>
	<< Calculating on displaced geometry   6 (of  48) >>
	<< Calculating on displaced geometry   7 (of  48) >>
	<< Calculating on displaced geometry   8 (of  48) >>
	<< Calculating on displaced geometry   9 (of  48) >>
	<< Calculating on displaced geometry  10 (of  48) >>
	<< Calculating on displaced geometry  11 (of  48) >>
	<< Calculating on displaced geometry  12 (of  48) >>
	<< Calculating on displaced geometry  13 (of  48) >>
	<< Calculating on displaced geometry  14 (of  48) >>
